ITEM: TIMESTEP
200000
ITEM: NUMBER OF ENTRIES
154
ITEM: BOX BOUNDS ff ff ff
0.0000000000000000e+00 1.2000000000000000e-02
0.0000000000000000e+00 2.3999999999999998e-03
0.0000000000000000e+00 3.2000000000000001e-02
ITEM: ENTRIES index c_cids[1] c_cids[2] c_cids[3] c_cids[4] c_cpair[1] c_cpair[2] c_cpair[3] c_cpair[4] c_cpair[5] c_cpair[6] c_cpair[7] c_cpair[8] c_cpair[9] c_cpair[10] c_cpair[11] c_cpair[12]
1 21402 14560 1 1 9.02452e-05 -4.29127e-05 -5.05763e-05 -6.11942e-05 0.000203057 -9.65561e-05 -0.0001138 -0.000137691 7.31326e-05 -7.01091e-05 6.65977e-06 0.000101528 
2 19091 25786 1 1 0.000101601 -5.97528e-05 8.17177e-05 -8.63044e-06 2.65322e-05 -1.5604e-05 2.13399e-05 -2.25377e-06 -8.27451e-06 -6.87062e-06 -7.76636e-06 1.32661e-05 
3 24504 26789 1 1 0.000102872 3.72362e-05 9.53729e-05 -1.00064e-05 0.000109439 3.96132e-05 0.000101461 -1.06452e-05 -1.18531e-05 5.26077e-06 6.03309e-06 1.43028e-05 
4 24568 22815 1 1 0.000109313 1.47069e-05 3.54359e-05 -0.000102359 6.97526e-05 9.38445e-06 2.26115e-05 -6.53152e-05 1.65852e-05 2.81773e-05 1.21377e-05 3.48763e-05 
5 22704 28598 1 1 9.11181e-05 1.96388e-05 -8.39733e-05 -2.94161e-05 4.54328e-05 9.79217e-06 -4.18703e-05 -1.46673e-05 -1.15915e-05 -8.8178e-06 1.74332e-05 2.27164e-05 
6 27964 25994 1 1 0.000114164 6.40351e-05 8.76468e-05 -3.53701e-05 7.79956e-06 4.37479e-06 5.98792e-06 -2.41644e-06 3.16588e-06 -1.70291e-06 1.5118e-06 3.89978e-06 
7 22199 26739 1 1 8.91823e-05 -3.33651e-05 -4.55868e-05 -6.90079e-05 1.63832e-05 -6.12931e-06 -8.37448e-06 -1.2677e-05 -6.35451e-06 5.15846e-06 -3.353e-07 8.19158e-06 
8 36344 36889 1 1 8.49818e-05 -8.03193e-05 -2.74961e-05 3.83292e-06 2.29962e-05 -2.17345e-05 -7.44047e-06 1.03719e-06 3.49319e-06 -1.05931e-05 -2.79108e-06 1.14981e-05 
9 19080 19439 1 1 0.000102357 3.92672e-05 6.7193e-05 -6.64837e-05 9.30316e-05 3.56898e-05 6.10714e-05 -6.04268e-05 3.17098e-05 1.27069e-05 3.15712e-05 4.65158e-05 
10 35604 34402 1 1 0.000113396 -3.64435e-05 6.54403e-05 -8.51356e-05 6.62886e-05 -2.1304e-05 3.82549e-05 -4.97683e-05 1.23051e-06 -9.39595e-06 -7.74902e-06 1.22411e-05 
11 23549 13436 1 1 9.6523e-05 -4.40289e-05 -2.79863e-05 8.12091e-05 9.33786e-05 -4.25946e-05 -2.70746e-05 7.85635e-05 1.6085e-05 3.80133e-05 2.18209e-05 4.66893e-05 
12 31383 34337 1 1 8.97566e-05 4.37413e-05 4.30466e-05 -6.54977e-05 5.72213e-05 2.78858e-05 2.74429e-05 -4.17558e-05 9.50571e-06 -2.50246e-05 -1.00986e-05 2.86107e-05 
13 30787 39011 1 1 0.000101094 5.80847e-05 1.77048e-05 -8.08245e-05 3.72505e-05 2.14028e-05 6.5238e-06 -2.97819e-05 -1.19022e-05 -9.57976e-06 -1.0652e-05 1.86253e-05 
14 42263 46396 1 1 0.000107649 -9.87809e-05 -3.99709e-05 1.5266e-05 2.34535e-05 -2.15213e-05 -8.70843e-06 3.32598e-06 -4.5541e-06 1.07128e-05 -1.41872e-06 1.17267e-05 
15 36520 32946 1 1 9.07914e-05 1.6365e-05 -8.60324e-05 -2.39519e-05 8.13561e-05 1.46643e-05 -7.70917e-05 -2.14627e-05 -1.53723e-05 -4.43013e-06 5.40949e-06 1.68878e-05 
16 36759 38266 1 1 9.61286e-05 -6.50484e-05 4.3062e-05 5.617e-05 1.79555e-05 -1.21501e-05 8.04339e-06 1.04918e-05 -2.4406e-06 -7.98617e-06 3.29612e-06 8.97775e-06 
17 32606 33390 1 1 0.000106913 -0.000100531 -3.61398e-05 4.24009e-06 3.07802e-05 -2.89426e-05 -1.04046e-05 1.22071e-06 4.70402e-06 -1.36964e-05 -5.20913e-06 1.53901e-05 
18 33256 32909 1 1 8.69111e-05 3.60446e-05 -7.72154e-05 -1.70914e-05 4.1345e-05 1.7147e-05 -3.67326e-05 -8.13063e-06 3.00655e-06 1.93992e-06 -2.42355e-06 4.3216e-06 
19 37007 33202 1 1 0.000109813 8.4602e-05 -7.00034e-05 9.669e-07 7.54158e-05 5.81017e-05 -4.80759e-05 6.64034e-07 -8.47274e-06 -9.79248e-06 3.23762e-05 3.48698e-05 
20 19997 32230 1 1 0.000106462 -4.01727e-05 -7.63437e-05 6.23847e-05 3.80853e-05 -1.43713e-05 -2.7311e-05 2.23174e-05 7.97242e-06 2.16e-06 7.77716e-06 1.1345e-05 
21 38943 31547 1 1 9.78233e-05 -7.85371e-05 -1.19646e-05 -5.70804e-05 8.62226e-05 -6.92235e-05 -1.05457e-05 -5.03113e-05 -7.57221e-07 1.60433e-05 -2.32097e-06 1.6228e-05 
22 30613 37095 1 1 0.000112172 5.22167e-05 -9.74798e-05 1.88038e-05 4.53641e-05 2.11173e-05 -3.94224e-05 7.60456e-06 1.74726e-05 1.1139e-05 9.22523e-06 2.2682e-05 
23 28683 30215 1 1 0.000119449 -6.12815e-05 7.83844e-06 -0.000102231 3.50703e-05 -1.79923e-05 2.30137e-06 -3.00152e-05 -7.45162e-06 3.06779e-06 4.70201e-06 9.3299e-06 
24 39876 40660 1 1 9.77388e-05 1.52565e-05 -9.22653e-05 2.84116e-05 3.0296e-05 4.72904e-06 -2.85994e-05 8.80673e-06 1.2478e-05 4.34462e-06 7.4085e-06 1.5148e-05 
25 25839 33060 1 1 8.22079e-05 -9.24466e-07 -2.17269e-05 -7.92794e-05 0.000191756 -2.15639e-06 -5.06795e-05 -0.000184925 -2.31132e-06 -1.81833e-05 5.01015e-06 1.9002e-05 
26 41337 42963 1 1 0.000113922 0.000111894 -2.136e-05 -1.27957e-06 2.00564e-05 1.96995e-05 -3.76053e-06 -2.25275e-07 6.38619e-07 3.89757e-06 -9.21772e-06 1.00282e-05 
27 8707 46191 2 1 0.000112838 6.59248e-05 3.2448e-05 -8.56358e-05 0.000243429 0.000142221 7.00011e-05 -0.000184745 -3.31463e-05 -1.03111e-05 -2.94238e-05 4.55055e-05 
28 29463 28814 1 1 9.94756e-05 -8.69027e-05 2.36559e-05 -4.22341e-05 2.51392e-05 -2.19618e-05 5.97824e-06 -1.06733e-05 -5.79168e-06 -1.55355e-06 1.10471e-05 1.25696e-05 
29 40426 46478 1 1 9.69619e-05 -5.32324e-05 -7.51808e-05 -3.02616e-05 0.000108229 -5.94179e-05 -8.39167e-05 -3.37779e-05 1.07494e-05 -2.61775e-05 4.61254e-05 5.41143e-05 
30 41706 32717 1 1 0.00010605 -7.84066e-05 -5.50267e-05 -4.55095e-05 8.34067e-05 -6.16654e-05 -4.32776e-05 -3.57925e-05 2.43038e-05 -3.38772e-05 -9.10146e-07 4.17033e-05 
31 38961 39642 1 1 0.000111082 9.54407e-05 1.70407e-05 -5.42217e-05 0.000131169 0.000112699 2.01221e-05 -6.40266e-05 -2.2061e-05 8.36649e-06 -3.62022e-05 4.32121e-05 
32 9053 22993 2 1 0.000123882 6.32362e-05 3.78643e-05 -9.95707e-05 3.12941e-05 1.59742e-05 9.56496e-06 -2.51527e-05 -8.08676e-06 1.33953e-05 -4.19134e-08 1.56471e-05 
33 9323 33579 2 1 0.000117447 -5.15504e-05 -2.62677e-06 -0.000105496 0.000144201 -6.32934e-05 -3.22514e-06 -0.000129528 -1.93757e-05 2.79745e-05 8.77133e-06 3.51415e-05 
34 35759 43288 1 1 0.000111127 -0.000107526 1.30024e-05 -2.48638e-05 0.000150642 -0.000145761 1.76259e-05 -3.3705e-05 1.79668e-05 4.31747e-05 -5.51213e-05 7.22857e-05 
35 43525 32955 1 1 9.02137e-05 -4.60866e-05 -3.42288e-05 6.95911e-05 0.000144312 -7.37232e-05 -5.47547e-05 0.000111323 2.72073e-05 5.10512e-05 4.31279e-05 7.21559e-05 
36 43636 45666 1 1 9.35057e-05 4.11631e-05 5.393e-05 -6.43465e-05 3.11646e-05 1.37193e-05 1.79744e-05 -2.14461e-05 -1.37255e-05 2.00609e-06 -7.09898e-06 1.55823e-05 
37 44943 44414 1 1 0.00010046 3.44445e-05 -8.61268e-05 -3.8575e-05 0.00039865 0.000136684 -0.000341772 -0.000153075 -7.53875e-05 -2.34837e-05 -1.48829e-05 8.03508e-05 
38 42206 42192 1 1 0.000111746 -7.41166e-05 -5.57505e-05 -6.23353e-05 3.86504e-05 -2.56353e-05 -1.92829e-05 -2.15604e-05 1.44568e-05 -8.12853e-06 -9.91923e-06 1.93252e-05 
39 43211 42497 1 1 0.000112643 -9.39233e-05 -6.16005e-05 8.49624e-06 6.71163e-05 -5.59626e-05 -3.67036e-05 5.06234e-06 1.34047e-05 -2.28016e-05 -1.71345e-05 3.15149e-05 
40 36201 41220 1 1 0.000100365 -3.29404e-05 -4.2741e-05 -8.46243e-05 2.44848e-05 -8.03606e-06 -1.0427e-05 -2.06447e-05 1.15485e-05 -2.37939e-06 -3.29355e-06 1.22424e-05 
41 42192 38897 1 1 0.00011684 -5.50512e-06 -0.000104223 -5.25246e-05 0.000127376 -6.00152e-06 -0.000113621 -5.72608e-05 -1.36917e-05 2.40371e-06 -3.33459e-06 1.42955e-05 
42 44239 46301 1 1 0.000108573 3.3234e-05 1.6267e-05 -0.000102074 0.000109424 3.34945e-05 1.63945e-05 -0.000102874 5.20661e-05 -1.14229e-06 1.67701e-05 5.47122e-05 
43 38723 44374 1 1 9.82019e-05 2.07187e-05 -5.04852e-05 -8.16431e-05 1.48126e-05 3.12519e-06 -7.61512e-06 -1.23149e-05 7.66632e-07 -4.05164e-07 4.45089e-07 9.74673e-07 
44 20898 39890 1 1 8.80979e-05 4.7465e-06 8.24314e-05 -3.0721e-05 0.000188508 1.01563e-05 0.000176383 -6.57354e-05 -4.32091e-05 -2.7057e-05 -7.9276e-05 9.42539e-05 
45 39234 55529 1 1 0.00010668 -7.63348e-05 -6.5242e-05 -3.60164e-05 3.40563e-06 -2.43689e-06 -2.08276e-06 -1.14978e-06 -1.14635e-06 1.2477e-06 1.69478e-07 1.70282e-06 
46 37011 45494 1 1 9.75985e-05 -6.32526e-05 2.09701e-05 -7.1308e-05 2.82035e-05 -1.82784e-05 6.05982e-06 -2.06062e-05 3.51234e-07 1.3606e-05 3.68965e-06 1.41018e-05 
47 52995 47693 1 1 0.00010507 -6.54906e-05 -6.86856e-05 -4.50891e-05 3.77378e-05 -2.35221e-05 -2.46696e-05 -1.61945e-05 -1.31613e-06 6.68807e-06 -8.27651e-06 1.07221e-05 
48 52177 53272 1 1 9.5145e-05 1.40304e-05 -2.67027e-05 -9.02368e-05 3.84142e-05 5.66467e-06 -1.0781e-05 -3.64325e-05 6.03787e-07 -1.31364e-07 1.32752e-07 6.32011e-07 
49 54461 53501 1 1 0.000110185 3.04169e-05 -4.11261e-05 -9.75914e-05 6.05109e-05 1.67043e-05 -2.25856e-05 -5.3595e-05 2.77979e-05 -5.08638e-06 1.08074e-05 3.02554e-05 
50 31487 50934 1 1 9.76586e-05 8.59491e-05 -1.52079e-05 -4.38027e-05 0.00010432 9.18122e-05 -1.62453e-05 -4.67907e-05 7.34832e-06 -1.19108e-05 1.85541e-05 2.32405e-05 
51 48357 51464 1 1 0.000118167 -4.3623e-05 -8.30412e-05 -7.1866e-05 7.17957e-06 -2.65043e-06 -5.04539e-06 -4.36641e-06 3.02643e-06 7.9543e-08 -1.92897e-06 3.58979e-06 
52 56270 47836 1 1 0.000107521 -8.76927e-06 8.02714e-05 -7.09956e-05 4.91491e-05 -4.00853e-06 3.66929e-05 -3.24529e-05 2.39015e-05 5.02053e-06 2.7242e-06 2.45745e-05 
53 55523 52939 1 1 0.000108019 4.52303e-05 7.77552e-05 -5.98032e-05 5.06633e-05 2.1214e-05 3.64689e-05 -2.80491e-05 -1.62107e-06 2.53571e-06 2.07085e-06 3.65323e-06 
54 53913 48675 1 1 8.78483e-05 -3.31109e-05 8.13386e-05 -2.24199e-06 1.21498e-05 -4.57937e-06 1.12495e-05 -3.10076e-07 -4.34952e-07 -1.00418e-08 6.0593e-06 6.0749e-06 
55 53802 58177 1 1 0.000102224 6.11982e-05 7.58992e-05 -3.07222e-05 0.00014214 8.50946e-05 0.000105536 -4.27185e-05 2.71792e-06 -2.05445e-05 -4.5341e-05 4.98524e-05 
56 58900 61871 1 1 0.000102322 -9.37946e-05 6.7132e-06 4.03396e-05 0.000248789 -0.000228056 1.63227e-05 9.80832e-05 1.85992e-05 -1.7758e-05 4.62006e-05 5.28751e-05 
57 10857 53200 2 1 0.000114178 -0.00010095 1.72691e-05 -5.04728e-05 1.30295e-05 -1.152e-05 1.97066e-06 -5.75971e-06 1.5891e-06 -4.28367e-06 -4.644e-06 6.51474e-06 
58 52405 54635 1 1 9.37128e-05 -3.65972e-06 5.1091e-05 -7.84755e-05 0.000172408 -6.73298e-06 9.39947e-05 -0.000144376 9.77162e-06 -4.52372e-05 -2.99071e-05 5.51028e-05 
59 37072 43574 1 1 0.000111575 -7.35754e-05 -8.13647e-05 -2.03848e-05 4.81715e-05 -3.17654e-05 -3.51283e-05 -8.8009e-06 1.34787e-05 -7.55995e-06 -1.84741e-05 2.40857e-05 
60 54376 61793 1 1 9.38025e-05 5.68528e-06 3.89958e-05 -8.51229e-05 0.000142253 8.62179e-06 5.91376e-05 -0.00012909 2.33726e-05 -1.94527e-05 -7.35049e-06 3.12844e-05 
61 11131 35565 2 1 0.000125502 -1.79122e-05 2.65418e-05 -0.000121348 0.000218059 -3.11223e-05 4.61162e-05 -0.000210842 2.25246e-05 5.17141e-05 7.98629e-06 5.69692e-05 
62 53264 54632 1 1 9.45883e-05 -4.45802e-05 -7.33142e-05 3.98068e-05 3.16495e-05 -1.49167e-05 -2.45311e-05 1.33195e-05 -8.02235e-06 -1.71705e-06 -1.21467e-05 1.46577e-05 
63 59670 64321 1 1 0.000105432 -7.94233e-05 5.95734e-06 -6.90826e-05 0.00019713 -0.000148501 1.11387e-05 -0.000129166 6.97582e-06 -5.33887e-06 -8.4804e-06 1.22099e-05 
64 63191 65285 1 1 9.86635e-05 -8.57708e-06 -5.61059e-05 -8.07035e-05 0.000285258 -2.47982e-05 -0.000162214 -0.000233331 -6.16257e-05 4.40203e-05 -2.40539e-05 7.94613e-05 
65 62947 63581 1 1 0.000103121 6.78259e-05 4.29322e-05 -6.47333e-05 0.000275573 0.000181253 0.000114729 -0.000172989 2.91833e-05 -5.45727e-05 -5.61603e-06 6.214e-05 
66 58344 61498 1 1 8.79125e-05 3.54731e-05 3.96728e-05 -6.99738e-05 0.000111441 4.49669e-05 5.02906e-05 -8.87012e-05 -2.89257e-05 -1.12419e-05 -2.10376e-05 3.74921e-05 
67 70744 72466 1 1 0.000110293 -5.95016e-05 7.2801e-05 -5.7656e-05 6.31325e-06 -3.4059e-06 4.16717e-06 -3.30026e-06 1.65504e-06 2.33659e-06 1.24234e-06 3.12126e-06 
68 68949 70889 1 1 9.65108e-05 -9.48869e-05 -6.93113e-06 1.62103e-05 2.26813e-05 -2.22997e-05 -1.62891e-06 3.80963e-06 -1.91114e-07 4.86236e-07 -9.10782e-07 1.04999e-06 
69 67641 72970 1 1 0.00010466 8.97821e-06 -3.2759e-05 -9.89947e-05 4.93822e-06 4.23623e-07 -1.54569e-06 -4.67091e-06 1.96945e-06 -1.35135e-06 6.25802e-07 2.46911e-06 
70 21008 15567 1 1 9.62763e-05 -7.65825e-05 -1.31134e-05 -5.68532e-05 0.000150983 -0.000120099 -2.05648e-05 -8.91587e-05 9.99736e-06 9.5576e-07 -1.36871e-05 1.69764e-05 
71 13723 21350 1 1 9.80624e-05 3.90121e-06 -9.17682e-05 -3.43452e-05 0.000296445 1.17934e-05 -0.000277417 -0.000103826 0.00014802 3.75733e-06 6.77394e-06 0.000148222 
72 15627 21575 1 1 9.44468e-05 -4.72915e-05 -2.81675e-07 -8.17534e-05 0.000104529 -5.23397e-05 -3.11743e-07 -9.04802e-05 -4.24728e-05 1.80842e-05 2.45067e-05 5.22643e-05 
73 15596 24663 1 1 0.000117087 -5.81603e-05 3.51908e-05 -9.53323e-05 0.000209718 -0.000104173 6.30315e-05 -0.000170753 -6.30368e-06 2.13206e-05 1.1716e-05 2.51311e-05 
74 7271 25315 2 1 0.000116892 1.52029e-06 3.91334e-05 -0.000110136 0.000188998 2.4581e-06 6.32732e-05 -0.000178075 6.05243e-05 2.92932e-05 1.12438e-05 6.81741e-05 
75 7298 19368 2 1 0.000118768 9.99555e-06 3.14469e-05 -0.000114092 0.000206629 1.739e-05 5.47105e-05 -0.000198494 5.83031e-06 -1.19244e-05 -2.77591e-06 1.35606e-05 
76 8189 12624 2 1 0.00011123 5.30625e-05 -1.08186e-05 -9.71571e-05 0.000288978 0.000137857 -2.81068e-05 -0.000252415 2.60598e-05 1.37938e-06 1.4079e-05 2.96519e-05 
77 23480 26064 1 1 0.000108099 4.6937e-05 7.90449e-05 5.687e-05 5.14459e-05 2.2338e-05 3.76187e-05 2.70653e-05 -2.02903e-05 1.51941e-05 -4.37224e-06 2.5723e-05 
78 13297 20671 1 1 0.000107483 -2.67497e-06 -0.000106148 -1.66746e-05 0.000204 -5.077e-06 -0.000201466 -3.16478e-05 7.42091e-06 9.73504e-06 -6.31626e-05 6.43378e-05 
79 26446 28757 1 1 0.000109761 -5.554e-05 -4.51424e-05 -8.32166e-05 5.44829e-05 -2.75687e-05 -2.24076e-05 -4.13068e-05 -2.91143e-06 -2.29462e-05 1.43907e-05 2.72414e-05 
80 23894 13861 1 1 9.98334e-05 -2.53955e-06 -9.4393e-05 -3.24069e-05 6.44565e-07 -1.63964e-08 -6.0944e-07 -2.09232e-07 1.17433e-07 -1.00277e-07 2.82878e-07 3.22283e-07 
81 28657 33568 1 1 0.000107141 -3.04701e-05 -4.1002e-05 -9.4179e-05 0.000300606 -8.54898e-05 -0.000115039 -0.000264237 1.03135e-05 2.8572e-05 -1.57759e-05 3.42287e-05 
82 37141 21667 1 1 0.000107474 1.7481e-05 -0.000104256 1.93806e-05 1.24769e-05 2.0294e-06 -1.21034e-05 2.24994e-06 -7.33809e-07 -2.94917e-07 -9.24599e-07 1.21669e-06 
83 30084 21856 1 1 0.000101998 -6.24439e-05 -1.73597e-05 -7.87585e-05 3.36019e-05 -2.05714e-05 -5.71894e-06 -2.59461e-05 -1.11739e-05 -5.10381e-06 9.9842e-06 1.583e-05 
84 29316 14100 1 1 0.000113136 -6.281e-05 -6.43908e-06 -9.38785e-05 7.36752e-05 -4.09025e-05 -4.19319e-06 -6.11346e-05 2.75968e-05 -1.72264e-05 -1.72823e-05 3.68376e-05 
85 34870 17141 1 1 0.000103534 -1.83637e-06 -7.77601e-05 -6.83328e-05 3.7029e-05 -6.56777e-07 -2.78109e-05 -2.44392e-05 -1.7854e-05 3.46654e-06 -3.46498e-06 1.85145e-05 
86 30251 32331 1 1 0.000119081 5.66175e-05 -7.94491e-05 -6.82825e-05 0.000101111 4.80736e-05 -6.74598e-05 -5.79783e-05 -3.38814e-06 4.92884e-06 -8.5442e-06 1.04296e-05 
87 35625 35676 1 1 9.42858e-05 6.17508e-06 6.45446e-05 -6.8452e-05 2.11821e-05 1.38728e-06 1.45005e-05 -1.53783e-05 -3.73815e-07 7.49752e-06 7.03582e-06 1.02886e-05 
88 29178 32361 1 1 0.000103126 6.24234e-05 2.63271e-05 -7.77501e-05 7.19234e-05 4.35363e-05 1.83615e-05 -5.42257e-05 9.77883e-07 3.01948e-05 1.10094e-05 3.21541e-05 
89 22411 37058 1 1 8.70399e-05 1.99757e-05 -8.46504e-05 3.35061e-06 3.42879e-06 7.86911e-07 -3.33466e-06 1.31992e-07 1.38762e-06 3.64596e-07 9.38473e-07 1.7144e-06 
90 25360 45513 1 1 9.39636e-05 5.77251e-07 8.08925e-05 -4.78041e-05 2.22057e-05 1.36418e-07 1.91167e-05 -1.12972e-05 -5.41156e-06 4.96091e-06 8.32935e-06 1.11029e-05 
91 37970 40218 1 1 0.000103476 -3.36251e-05 -9.65788e-07 -9.78557e-05 8.80852e-05 -2.86238e-05 -8.22138e-07 -8.33007e-05 -3.26842e-05 -1.1581e-05 1.13452e-05 3.64841e-05 
92 33119 15607 1 1 0.000101739 -9.30136e-05 -1.7686e-05 3.72358e-05 3.9716e-07 -3.63099e-07 -6.90411e-08 1.45358e-07 4.65822e-08 1.01162e-07 1.64409e-07 1.9858e-07 
93 36062 38255 1 1 0.000101403 -3.89621e-06 3.93755e-05 -9.3365e-05 9.6503e-05 -3.70792e-06 3.74727e-05 -8.88531e-05 8.6557e-06 -6.87251e-06 -3.2596e-06 1.15229e-05 
94 23885 42507 1 1 0.000110385 5.15234e-05 -9.42201e-05 2.55507e-05 5.66062e-06 2.64215e-06 -4.83166e-06 1.31025e-06 -8.52329e-07 -1.13066e-06 -2.45067e-06 2.83031e-06 
95 41513 38680 1 1 0.000102338 6.78317e-05 -7.57956e-05 1.12659e-05 2.43793e-05 1.61591e-05 -1.80563e-05 2.6838e-06 8.58199e-06 6.90409e-06 -5.2221e-06 1.21896e-05 
96 41783 35839 1 1 9.22936e-05 3.02792e-05 -6.93064e-06 -8.69095e-05 9.64869e-05 3.16549e-05 -7.24553e-06 -9.08581e-05 -4.45325e-05 -1.14481e-05 -1.46022e-05 4.82435e-05 
97 10128 33393 2 1 0.000124105 -0.000113086 -3.11224e-05 -4.05592e-05 0.000139176 -0.000126818 -3.49018e-05 -4.54845e-05 2.66933e-05 -5.6071e-05 -3.14002e-05 6.95878e-05 
98 34929 45815 1 1 9.66084e-05 -1.93335e-05 8.01884e-05 -5.02913e-05 0.000137724 -2.75617e-05 0.000114316 -7.16949e-05 -5.87992e-05 4.37208e-06 2.95754e-05 6.59633e-05 
99 44293 45575 1 1 9.29972e-05 -6.93549e-05 1.77859e-05 -5.93468e-05 1.88834e-05 -1.40827e-05 3.61148e-06 -1.20506e-05 5.10086e-06 -4.72906e-07 -6.10279e-06 7.96784e-06 
100 42521 45966 1 1 9.22663e-05 -4.89387e-05 -7.55835e-05 -2.01299e-05 5.14801e-05 -2.73054e-05 -4.21719e-05 -1.12315e-05 -9.39748e-06 -2.96892e-07 2.39614e-05 2.57401e-05 
101 10237 32839 2 1 0.000120994 -7.95003e-05 -5.07584e-05 -7.57817e-05 0.000186814 -0.000122748 -7.83708e-05 -0.000117007 6.1677e-06 1.09744e-05 -1.3821e-05 1.86949e-05 
102 42972 46616 1 1 9.67294e-05 -1.62197e-05 -9.43805e-05 1.36312e-05 6.17968e-05 -1.03622e-05 -6.02962e-05 8.70849e-06 5.57823e-06 3.40304e-06 3.01996e-05 3.08984e-05 
103 31505 38791 1 1 0.000111606 -0.000102953 -3.8224e-05 -1.98859e-05 6.74629e-05 -6.22325e-05 -2.31053e-05 -1.20205e-05 -1.63451e-06 -1.60024e-06 1.15381e-05 1.17627e-05 
104 26556 34253 1 1 0.000111871 -4.92951e-06 5.84207e-05 -9.52782e-05 0.00023938 -1.05481e-05 0.000125007 -0.000203874 -3.23533e-05 -9.13685e-05 -5.43495e-05 0.000111125 
105 40775 39140 1 1 0.000108937 -0.000104167 3.08478e-05 -8.0658e-06 1.83194e-05 -1.75171e-05 5.1875e-06 -1.35638e-06 -1.39049e-06 -6.376e-06 -6.4275e-06 9.15968e-06 
106 47003 46549 1 1 9.00889e-05 8.92678e-05 -8.59034e-06 8.57243e-06 7.65475e-05 7.58498e-05 -7.29912e-06 7.28389e-06 4.47129e-06 3.6742e-05 -9.74239e-06 3.82738e-05 
107 27325 27312 1 1 9.25799e-05 -7.34227e-06 9.09978e-05 -1.53799e-05 2.75349e-05 -2.18372e-06 2.70643e-05 -4.57426e-06 6.58789e-06 2.52952e-06 1.18213e-05 1.37674e-05 
108 38518 21474 1 1 0.000101777 -9.60231e-05 -2.20456e-06 -3.36649e-05 0.000238232 -0.000224763 -5.16026e-06 -7.87998e-05 -2.17245e-05 -6.27777e-05 6.60765e-05 9.36968e-05 
109 46397 45651 1 1 9.72319e-05 4.65072e-05 -8.38293e-05 -1.62405e-05 6.66304e-06 3.18701e-06 -5.7446e-06 -1.11292e-06 -2.63471e-06 -1.68431e-06 1.14909e-06 3.33152e-06 
110 9673 41548 2 1 0.000124376 -2.6179e-05 1.1549e-06 -0.000121584 0.000136879 -2.88108e-05 1.27101e-06 -0.000133807 6.55822e-05 -1.34139e-05 -1.42483e-05 6.84396e-05 
111 39738 42049 1 1 9.13457e-05 -8.02641e-06 5.09315e-05 -7.54028e-05 3.10945e-05 -2.73223e-06 1.73373e-05 -2.56675e-05 2.60758e-06 -7.96057e-06 -5.65461e-06 1.01067e-05 
112 9889 30744 2 1 0.000115034 2.21779e-06 -4.73677e-05 -0.000104805 0.000111098 2.1419e-06 -4.57469e-05 -0.000101219 2.65882e-05 -4.42304e-05 2.05529e-05 5.55489e-05 
113 31704 39853 1 1 0.000108034 -8.37253e-05 5.62022e-05 -3.87645e-05 8.05036e-05 -6.23897e-05 4.18803e-05 -2.88862e-05 -1.4227e-05 1.73758e-06 3.32473e-05 3.6205e-05 
114 25798 41482 1 1 9.1782e-05 -8.71643e-05 -1.3978e-05 2.51187e-05 8.82274e-05 -8.37885e-05 -1.34367e-05 2.41459e-05 1.08013e-06 1.16344e-07 3.8129e-06 3.96464e-06 
115 42474 46563 1 1 0.000112552 0.000103237 -4.35882e-05 -1.04973e-05 0.000184052 0.000168819 -7.12781e-05 -1.71658e-05 3.20968e-05 8.22611e-05 -2.59162e-05 9.20258e-05 
116 37620 45875 1 1 0.000104643 2.8795e-05 -9.8439e-06 -0.000100121 4.38668e-05 1.20709e-05 -4.12659e-06 -4.1971e-05 -6.42181e-06 -3.18253e-06 -1.53402e-06 7.32948e-06 
117 38793 46744 1 1 9.87958e-05 -6.74481e-05 4.87047e-05 -5.32844e-05 4.49438e-05 -3.06832e-05 2.21565e-05 -2.42399e-05 1.06224e-05 9.44732e-06 -4.8106e-06 1.50076e-05 
118 34164 37047 1 1 0.000110495 7.77283e-07 -0.000110197 -8.06723e-06 0.000168905 1.18817e-06 -0.00016845 -1.23317e-05 -1.89017e-05 -1.85028e-06 2.34534e-05 3.01788e-05 
119 30212 41373 1 1 9.82665e-05 -8.48865e-05 -1.40206e-05 -4.74765e-05 1.97316e-05 -1.70449e-05 -2.81529e-06 -9.53312e-06 2.54549e-08 -9.47406e-06 2.75233e-06 9.86579e-06 
120 42970 36022 1 1 9.43631e-05 -5.65877e-05 -2.79588e-05 -7.01464e-05 6.72875e-05 -4.0351e-05 -1.99366e-05 -5.00193e-05 2.61396e-05 -1.4737e-05 -1.52132e-05 3.36437e-05 
121 40736 43386 1 1 0.000106864 7.82679e-05 -2.72953e-06 -7.27087e-05 5.91273e-05 4.33053e-05 -1.51024e-06 -4.02295e-05 -1.48287e-05 1.93795e-05 -1.669e-05 2.95637e-05 
122 43361 40248 1 1 9.94927e-05 3.32587e-05 -1.74706e-05 9.21272e-05 1.11006e-05 3.71073e-06 -1.94923e-06 1.02788e-05 -3.3117e-06 8.42645e-07 1.35535e-06 3.67619e-06 
123 41466 44923 1 1 8.77615e-05 2.72601e-05 5.17276e-05 -6.54463e-05 8.8918e-05 2.76193e-05 5.24092e-05 -6.63087e-05 3.50704e-05 -1.88993e-05 -3.29885e-07 3.984e-05 
124 38479 43647 1 1 0.000112952 -7.17977e-06 6.91193e-05 -8.90451e-05 0.00034426 -2.18829e-05 0.000210666 -0.000271396 0.000127115 9.64238e-05 6.45975e-05 0.00017213 
125 33048 40273 1 1 0.000101125 1.57438e-05 6.32509e-05 -7.73162e-05 3.27962e-05 5.10591e-06 2.0513e-05 -2.50746e-05 2.11103e-06 5.25281e-07 8.59588e-07 2.33907e-06 
126 45418 33056 1 1 0.000106405 -7.27186e-05 -5.61413e-05 -5.36857e-05 9.31587e-05 -6.3666e-05 -4.91524e-05 -4.70025e-05 -2.33634e-05 -7.58318e-06 3.95763e-05 4.65794e-05 
127 42723 40771 1 1 0.00010433 3.39179e-05 -9.86623e-05 -2.7187e-07 0.00017181 5.58558e-05 -0.000162477 -4.47714e-07 1.72339e-07 2.95961e-07 -8.59044e-05 8.5905e-05 
128 42914 38387 1 1 9.79076e-05 -3.3847e-05 -2.14934e-05 -8.93214e-05 0.00014989 -5.18174e-05 -3.2905e-05 -0.000136745 1.65862e-05 3.09519e-05 -1.37331e-05 3.77057e-05 
129 41489 44694 1 1 0.000105553 1.31217e-05 3.23191e-05 -9.96231e-05 0.000290345 3.60938e-05 8.89e-05 -0.000274033 -7.05474e-05 2.51954e-05 -1.11831e-06 7.49199e-05 
130 43311 48590 1 1 8.45301e-05 -2.43786e-05 2.49597e-05 -7.69938e-05 3.67e-05 -1.05843e-05 1.08366e-05 -3.3428e-05 -8.85093e-06 -1.53312e-05 -2.16758e-06 1.78349e-05 
131 40492 45556 1 1 9.59063e-05 -5.14775e-05 4.36191e-05 -6.81576e-05 2.18155e-05 -1.17094e-05 9.92189e-06 -1.55036e-05 -8.99329e-06 -1.1323e-06 6.06773e-06 1.09077e-05 
132 39934 46139 1 1 9.41439e-05 5.22375e-05 -4.18136e-05 -6.62265e-05 0.000197177 0.000109408 -8.75754e-05 -0.000138706 1.13197e-05 1.85507e-05 -2.78372e-06 2.19092e-05 
133 40932 47641 1 1 9.93751e-05 -2.85337e-05 5.7472e-05 -7.58829e-05 0.000356242 -0.000102288 0.000206027 -0.000272027 -9.51696e-06 -8.62738e-06 -2.95559e-06 1.3181e-05 
134 48957 55712 1 1 9.92523e-05 -4.7422e-06 -7.81639e-05 6.09831e-05 0.000308403 -1.47353e-05 -0.000242876 0.000189491 6.31028e-05 -2.61804e-06 1.55141e-06 6.31762e-05 
135 52689 51376 1 1 9.85186e-05 6.42169e-05 -8.01466e-06 -7.42824e-05 1.36558e-05 8.90121e-06 -1.11093e-06 -1.02964e-05 4.88855e-06 2.68891e-06 3.93602e-06 6.82791e-06 
136 53120 48881 1 1 9.79176e-05 9.26287e-06 -7.0384e-05 -6.744e-05 0.000135976 1.28631e-05 -9.77406e-05 -9.36523e-05 -1.27288e-05 4.85655e-06 -6.81686e-06 1.52341e-05 
137 54153 38958 1 1 0.000105096 -2.00251e-05 5.49413e-05 -8.73252e-05 3.99188e-05 -7.60615e-06 2.08684e-05 -3.31688e-05 -7.10072e-06 5.3314e-08 1.66185e-06 7.29279e-06 
138 42204 29392 1 1 9.80512e-05 -5.85182e-05 -7.81864e-05 -8.74848e-06 0.000140886 -8.40827e-05 -0.000112343 -1.25704e-05 -6.20644e-07 -4.80308e-06 4.70773e-05 4.73257e-05 
139 48714 51285 1 1 9.12265e-05 -6.33155e-05 -6.43039e-05 1.33573e-05 2.65062e-05 -1.83966e-05 -1.86838e-05 3.88102e-06 -3.71062e-06 5.98569e-06 1.12271e-05 1.32531e-05 
140 56062 49855 1 1 9.61979e-05 -8.12515e-05 3.80914e-05 -3.46594e-05 9.91701e-05 -8.37619e-05 3.92683e-05 -3.57302e-05 1.40671e-06 7.6987e-06 5.16333e-06 9.37597e-06 
141 51880 54940 1 1 9.98688e-05 -3.8186e-05 -5.77814e-05 -7.19508e-05 3.18428e-05 -1.21755e-05 -1.84234e-05 -2.29412e-05 -1.11716e-05 1.09718e-05 -2.88209e-06 1.59214e-05 
142 55651 52991 1 1 9.37586e-05 1.03488e-05 1.17623e-05 -9.24403e-05 7.18976e-05 7.93584e-06 9.01978e-06 -7.08867e-05 -2.48748e-05 -8.24665e-06 -3.83408e-06 2.64851e-05 
143 64467 60153 1 1 0.000106703 -3.72177e-05 2.70123e-05 -9.62849e-05 4.01561e-05 -1.40063e-05 1.01656e-05 -3.62353e-05 -4.2246e-06 -1.92629e-05 -3.77115e-06 2.0078e-05 
144 48597 56234 1 1 0.000103906 -5.51221e-05 7.00507e-05 -5.33935e-05 1.40506e-05 -7.45388e-06 9.4726e-06 -7.22013e-06 -3.32474e-07 4.68491e-08 4.04702e-07 5.2585e-07 
145 51958 54640 1 1 0.000106122 -0.000105438 1.15012e-05 -3.52694e-06 3.90884e-05 -3.88364e-05 4.2363e-06 -1.2991e-06 6.73711e-07 1.11041e-05 1.60693e-05 1.95442e-05 
146 52426 62728 1 1 0.000116672 -7.53771e-05 -6.60774e-05 -5.97026e-05 5.25666e-05 -3.39612e-05 -2.97712e-05 -2.6899e-05 1.12736e-05 -1.10071e-05 -2.05097e-06 1.58889e-05 
147 50745 50897 1 1 0.000103816 -1.65338e-05 -8.2334e-05 -6.10378e-05 1.83842e-05 -2.92787e-06 -1.458e-05 -1.08088e-05 -8.66079e-06 -5.12232e-07 3.03697e-06 9.19211e-06 
148 58474 58345 1 1 9.55344e-05 -4.86952e-05 7.6082e-05 -3.10985e-05 0.000146945 -7.48999e-05 0.000117025 -4.78338e-05 1.68065e-05 -1.75818e-05 -6.93299e-05 7.34725e-05 
149 38561 45948 1 1 9.86394e-05 -5.21816e-06 -9.5938e-05 -2.23248e-05 0.000100009 -5.29064e-06 -9.72706e-05 -2.26348e-05 2.01984e-06 1.12198e-05 -4.86879e-05 5.00047e-05 
150 43168 51718 1 1 9.58048e-05 -9.36965e-05 -3.32596e-06 1.97096e-05 1.11697e-05 -1.09239e-05 -3.87767e-07 2.2979e-06 1.16305e-06 -5.73036e-07 5.43226e-06 5.58484e-06 
151 61572 50275 1 1 9.95924e-05 7.69717e-05 -3.36249e-05 -5.35105e-05 4.00402e-05 3.09458e-05 -1.35186e-05 -2.15134e-05 6.38139e-06 1.87927e-05 -2.62973e-06 2.00201e-05 
152 61764 57538 1 1 0.000100271 -2.38253e-06 -5.90986e-05 -8.09691e-05 0.000230418 -5.47495e-06 -0.000135806 -0.000186063 -2.50171e-05 -2.71479e-05 2.05512e-05 4.22518e-05 
153 54670 48826 1 1 9.14757e-05 -5.70685e-05 6.68786e-05 -2.52635e-05 2.60971e-05 -1.62811e-05 1.90798e-05 -7.20742e-06 -2.11465e-06 -6.08998e-06 -1.13448e-05 1.30485e-05 
154 72793 68182 1 1 0.000103852 -6.92836e-05 -7.61662e-05 1.35514e-05 8.56738e-06 -5.71565e-06 -6.28344e-06 1.11794e-06 -7.77335e-07 6.32317e-07 -4.20275e-07 1.0866e-06 
ITEM: TIMESTEP
220000
ITEM: NUMBER OF ENTRIES
189
ITEM: BOX BOUNDS ff ff ff
0.0000000000000000e+00 1.2000000000000000e-02
0.0000000000000000e+00 2.3999999999999998e-03
0.0000000000000000e+00 3.2000000000000001e-02
ITEM: ENTRIES index c_cids[1] c_cids[2] c_cids[3] c_cids[4] c_cpair[1] c_cpair[2] c_cpair[3] c_cpair[4] c_cpair[5] c_cpair[6] c_cpair[7] c_cpair[8] c_cpair[9] c_cpair[10] c_cpair[11] c_cpair[12]
1 16443 22337 1 1 0.000102766 4.365e-05 -8.64293e-06 -9.2633e-05 0.00029199 0.000124023 -2.45572e-05 -0.000263198 -4.39422e-05 -0.00013901 -7.73615e-06 0.000145995 
2 21669 25143 1 1 8.73656e-05 -3.8855e-05 -7.82402e-05 1.22801e-06 0.000148126 -6.58777e-05 -0.000132654 2.08206e-06 2.57744e-05 -1.37939e-05 -6.33323e-05 6.97537e-05 
3 22448 29182 1 1 0.000100301 -6.5709e-05 3.75502e-05 -6.58221e-05 0.000252845 -0.000165644 9.46592e-05 -0.000165929 -4.497e-05 6.91637e-05 8.43493e-05 0.000117986 
4 26057 15171 1 1 0.000119452 -3.71685e-05 5.48267e-05 -9.94052e-05 3.84535e-05 -1.19651e-05 1.76496e-05 -3.20001e-05 1.73345e-05 8.06534e-06 -2.03311e-06 1.92268e-05 
5 29002 22349 1 1 0.000102171 5.67061e-05 -7.00848e-06 -8.47004e-05 0.000164222 9.11454e-05 -1.12649e-05 -0.000136141 7.10892e-07 -5.72893e-05 5.2163e-06 5.75307e-05 
6 5326 13553 2 1 0.000117379 -1.77453e-06 -2.01499e-05 -0.000115623 0.000342132 -5.17233e-06 -5.87322e-05 -0.000337013 -6.28256e-06 -4.01892e-05 7.10031e-06 4.12924e-05 
7 17240 18262 1 1 8.73798e-05 -4.57898e-05 -7.25275e-05 1.6682e-05 2.74668e-05 -1.43935e-05 -2.27982e-05 5.2438e-06 3.44774e-06 8.74325e-07 1.32648e-05 1.37334e-05 
8 30577 32349 1 1 0.00011043 -7.04976e-05 -5.7373e-05 -6.27155e-05 4.79482e-05 -3.06097e-05 -2.49111e-05 -2.72308e-05 -1.71494e-05 8.74497e-06 1.12774e-05 2.23105e-05 
9 14739 16636 1 1 0.000114903 8.09322e-05 -6.02568e-05 -5.49703e-05 7.74157e-05 5.4528e-05 -4.0598e-05 -3.70362e-05 -4.20464e-06 -2.13682e-05 1.72327e-05 2.77713e-05 
10 15717 14039 1 1 0.000112379 2.22981e-05 -3.13809e-05 -0.000105579 0.000180273 3.57696e-05 -5.03397e-05 -0.000169366 2.10025e-05 7.91357e-06 2.08356e-06 2.25404e-05 
11 27680 28502 1 1 0.000109855 -4.31704e-05 5.36605e-05 -8.55863e-05 0.000220159 -8.65172e-05 0.00010754 -0.000171522 4.85333e-06 2.55238e-05 1.35547e-05 2.93044e-05 
12 36860 34845 1 1 0.000111432 0.000100688 -2.74906e-05 3.90309e-05 3.97162e-05 3.58866e-05 -9.79805e-06 1.39112e-05 -8.47412e-06 -8.85088e-06 1.56267e-05 1.98581e-05 
13 6705 27129 2 1 0.000127461 -2.55857e-05 -1.11877e-05 -0.000124365 5.46861e-05 -1.09773e-05 -4.79998e-06 -5.33576e-05 1.34794e-05 1.19934e-05 -3.85204e-06 1.84492e-05 
14 37984 33941 1 1 0.000110254 8.96967e-05 -5.03898e-05 -3.96405e-05 2.80487e-05 2.28188e-05 -1.28192e-05 -1.00845e-05 -7.84912e-06 -6.27739e-06 -9.78098e-06 1.40243e-05 
15 43396 35703 1 1 9.29066e-05 3.04611e-05 -8.53453e-05 2.04925e-05 0.000133276 4.36969e-05 -0.000122429 2.93968e-05 -2.82384e-05 -1.19461e-05 -7.77698e-06 3.16322e-05 
16 44634 43490 1 1 9.64384e-05 -7.22585e-05 -6.03405e-05 -2.09307e-05 1.37898e-05 -1.03323e-05 -8.62815e-06 -2.9929e-06 3.34148e-07 -1.19304e-06 2.2858e-06 2.59997e-06 
17 44944 40593 1 1 9.67113e-05 2.40095e-05 -2.18433e-05 -9.11015e-05 4.15835e-06 1.03235e-06 -9.39209e-07 -3.91715e-06 2.01267e-06 4.43826e-08 5.1979e-07 2.07918e-06 
18 54860 50619 1 1 0.000115274 6.07404e-05 -2.874e-05 -9.36632e-05 0.000103817 5.47034e-05 -2.58835e-05 -8.43539e-05 1.72266e-05 1.04325e-05 7.9703e-06 2.16592e-05 
19 40777 32920 1 1 0.000100809 -4.80034e-05 -8.0826e-05 -3.64044e-05 3.3437e-05 -1.59221e-05 -2.68089e-05 -1.20749e-05 2.25248e-06 -7.89691e-06 1.45628e-05 1.67185e-05 