ITEM: TIMESTEP
200000
ITEM: NUMBER OF ENTRIES
137
ITEM: BOX BOUNDS ff ff ff
0.0000000000000000e+00 1.2000000000000000e-02
0.0000000000000000e+00 2.3999999999999998e-03
0.0000000000000000e+00 3.2000000000000001e-02
ITEM: ENTRIES index c_cids[1] c_cids[2] c_cids[3] c_cids[4] c_cpair[1] c_cpair[2] c_cpair[3] c_cpair[4] c_cpair[5] c_cpair[6] c_cpair[7] c_cpair[8] c_cpair[9] c_cpair[10] c_cpair[11] c_cpair[12]
1 14268 26912 1 1 0.000107927 4.69374e-05 5.80176e-05 -7.79688e-05 0.000172001 7.4803e-05 9.24613e-05 -0.000124257 -7.52933e-05 5.56923e-06 -4.11826e-05 8.60006e-05 
2 19821 18955 1 1 0.000102828 9.61169e-05 3.37903e-05 -1.39084e-05 3.20865e-05 2.99922e-05 1.05439e-05 -4.33996e-06 4.02419e-06 -1.4114e-05 -6.47971e-06 1.60432e-05 
3 33305 23418 1 1 0.000107879 -8.1072e-05 -6.34594e-05 -3.22188e-05 5.76625e-05 -4.3334e-05 -3.39198e-05 -1.72214e-05 1.09781e-06 -1.06187e-06 -6.70909e-07 1.66819e-06 
4 33055 13757 1 1 8.54432e-05 -5.44318e-05 6.93186e-06 6.54956e-05 2.38348e-05 -1.5184e-05 1.93368e-06 1.82703e-05 7.70711e-06 -5.77842e-06 7.01676e-06 1.19174e-05 
5 20644 29652 1 1 0.000114894 2.22983e-05 -0.000109967 2.47089e-05 7.56825e-05 1.46883e-05 -7.24374e-05 1.62762e-05 -1.12961e-05 -3.45278e-07 8.65737e-06 1.42362e-05 
6 13121 6682 1 2 0.000129091 -0.000105395 -4.87382e-05 5.64004e-05 6.89322e-05 -5.6279e-05 -2.60253e-05 3.01167e-05 1.28129e-05 8.10944e-06 3.09512e-05 3.44661e-05 
7 33574 38331 1 1 9.34583e-05 6.89317e-05 -5.74427e-05 2.6138e-05 1.86173e-05 1.37315e-05 -1.14428e-05 5.2068e-06 -4.19649e-06 -7.04236e-06 -4.4097e-06 9.30864e-06 
8 45009 33037 1 1 9.40188e-05 -5.10726e-06 -8.75535e-05 -3.38797e-05 4.14726e-05 -2.25286e-06 -3.86207e-05 -1.49447e-05 1.17641e-05 -6.7551e-06 1.56834e-05 2.07363e-05 
9 43530 36079 1 1 0.000112085 -2.80404e-05 8.7417e-06 -0.000108168 2.09456e-06 -5.23999e-07 1.63358e-07 -2.02137e-06 -7.50972e-07 6.85775e-07 2.50096e-07 1.04728e-06 
10 28489 16486 1 1 8.72473e-05 4.8361e-05 -4.4829e-05 -5.71286e-05 8.59501e-05 4.76419e-05 -4.41624e-05 -5.62792e-05 8.15802e-06 1.48146e-08 6.89438e-06 1.06811e-05 
11 36982 41476 1 1 8.29524e-05 -7.34913e-05 -2.86134e-05 -2.57177e-05 0.000206202 -0.000182684 -7.1127e-05 -6.39287e-05 -2.68594e-05 6.78803e-05 1.23043e-06 7.30114e-05 
12 25526 36419 1 1 0.000107929 8.7095e-05 -5.39078e-05 3.40157e-05 2.776e-05 2.24013e-05 -1.38654e-05 8.74905e-06 -1.6648e-06 -9.17633e-06 -1.02799e-05 1.388e-05 
13 42724 43490 1 1 0.000108483 -2.8645e-05 -0.000104628 -9.37438e-07 2.86226e-05 -7.55783e-06 -2.76056e-05 -2.47338e-07 6.04755e-06 -1.77082e-06 1.28493e-05 1.43113e-05 
14 43001 47068 1 1 0.000103259 5.20387e-05 -4.64852e-05 -7.61155e-05 4.99478e-06 2.51718e-06 -2.24855e-06 -3.68181e-06 2.6263e-07 2.19536e-06 -1.1612e-06 2.49739e-06 
15 33592 32757 1 1 0.000104749 4.31247e-05 -4.64909e-06 -9.5347e-05 0.000167034 6.87672e-05 -7.41349e-06 -0.000152042 -5.09139e-05 -1.71434e-05 -2.2192e-05 5.81258e-05 
16 8594 28410 2 1 0.000120665 -4.94205e-05 -4.39556e-05 -0.000100924 6.38513e-05 -2.61514e-05 -2.32596e-05 -5.3405e-05 2.02013e-05 -1.4619e-05 -3.52515e-06 2.5184e-05 
17 47127 34286 1 1 0.000103511 -7.57719e-05 -2.39225e-05 6.63396e-05 1.68905e-05 -1.23641e-05 -3.90356e-06 1.0825e-05 -1.01885e-06 -7.44758e-06 -3.84936e-06 8.44524e-06 
18 43930 40916 1 1 9.8704e-05 -9.26512e-05 -2.60021e-05 2.19573e-05 3.27138e-05 -3.07077e-05 -8.61797e-06 7.27736e-06 6.33443e-07 -4.19053e-06 -2.28961e-06 4.81706e-06 
19 42755 40279 1 1 9.41036e-05 4.87149e-05 3.30897e-05 -7.33991e-05 0.000108665 5.62528e-05 3.82099e-05 -8.47565e-05 -4.59156e-05 1.9151e-05 -2.18405e-05 5.43324e-05 
20 41821 39935 1 1 0.000105387 -4.49224e-05 -6.45e-05 -7.02002e-05 5.56301e-05 -2.37131e-05 -3.40474e-05 -3.70564e-05 -8.4959e-06 -9.05111e-06 1.37528e-05 1.85268e-05 
21 51737 53999 1 1 9.51032e-05 -7.42194e-05 -5.38074e-05 -2.53152e-05 3.60089e-05 -2.81017e-05 -2.03731e-05 -9.58507e-06 1.03834e-05 -1.33126e-05 -2.14614e-06 1.7019e-05 
22 53999 50640 1 1 9.68323e-05 -8.28879e-05 -3.52973e-05 -3.54991e-05 1.54372e-05 -1.32142e-05 -5.62716e-06 -5.65934e-06 -3.68134e-06 2.18572e-06 6.42239e-06 7.7186e-06 
23 52829 51159 1 1 9.44692e-05 2.13302e-05 -9.1855e-05 -5.66761e-06 8.33814e-05 1.88267e-05 -8.1074e-05 -5.0024e-06 1.04033e-05 -7.51945e-08 4.03718e-05 4.16907e-05 
24 57027 60803 1 1 0.000105074 1.27904e-05 -0.000103555 1.238e-05 1.50409e-05 1.8309e-06 -1.48235e-05 1.77215e-06 -9.93519e-07 2.57636e-07 3.18151e-06 3.34297e-06 
25 47669 62038 1 1 9.56087e-05 -2.38062e-05 -5.70373e-05 -7.29454e-05 0.000242426 -6.03633e-05 -0.000144624 -0.000184961 3.77504e-05 -1.5059e-05 -5.45208e-07 4.06468e-05 
26 4865 20696 2 1 0.000125705 -0.000102719 -4.57464e-05 -5.61945e-05 0.0002361 -0.000192928 -8.59214e-05 -0.000105545 4.13208e-05 1.57143e-05 -8.83238e-05 9.87696e-05 
27 20021 16798 1 1 9.74644e-05 7.97248e-05 -4.68414e-05 -3.08084e-05 5.23779e-07 4.28445e-07 -2.51728e-07 -1.65566e-07 2.26853e-08 -1.15319e-07 2.34036e-07 2.61889e-07 
28 26279 27207 1 1 9.21527e-05 1.53565e-05 -7.25856e-05 -5.46591e-05 0.000120734 2.01194e-05 -9.5098e-05 -7.16116e-05 -4.65064e-05 1.63857e-05 -3.48257e-05 6.03669e-05 
29 13521 15971 1 1 9.65245e-05 -1.7741e-05 3.41405e-05 -8.85249e-05 0.000272816 -5.01429e-05 9.64942e-05 -0.000250206 -5.41611e-06 6.09088e-05 2.45755e-05 6.59027e-05 
30 6840 28134 2 1 0.000125714 3.83185e-06 -4.56255e-05 -0.00011708 0.000349864 1.06641e-05 -0.000126976 -0.000325835 3.97515e-05 -9.11247e-05 3.68119e-05 0.000106014 
31 28709 28137 1 1 0.000105017 7.02814e-05 -6.00796e-05 -4.97951e-05 1.40246e-05 9.3858e-06 -8.02339e-06 -6.64994e-06 -1.03959e-06 -5.1057e-06 4.69292e-06 7.01231e-06 
32 27077 24496 1 1 0.0001082 -0.000106306 1.71031e-05 1.06597e-05 3.72676e-05 -3.66154e-05 5.89089e-06 3.67155e-06 -1.67358e-06 1.14246e-06 -1.85233e-05 1.86338e-05 
33 28134 15991 1 1 0.000115265 2.44492e-05 -7.75989e-05 -8.16503e-05 0.000157429 3.33927e-05 -0.000105984 -0.000111518 -1.76586e-05 -4.95169e-06 -5.81673e-07 1.83489e-05 
34 24770 29264 1 1 9.90017e-05 5.23753e-05 2.48477e-05 -8.02543e-05 0.000161842 8.56199e-05 4.06194e-05 -0.000131195 -6.79615e-05 2.36029e-05 -3.70451e-05 8.09209e-05 
35 26850 17007 1 1 0.000112426 -9.98707e-06 -0.00011028 -1.94498e-05 0.000286442 -2.54453e-05 -0.000280973 -4.95546e-05 1.58584e-07 2.35519e-07 -1.41682e-06 1.44499e-06 
36 21919 22423 1 1 0.000105403 -3.87611e-05 8.5397e-05 4.8112e-05 1.57851e-05 -5.80484e-06 1.2789e-05 7.20521e-06 -5.90972e-06 -4.33348e-06 2.93064e-06 7.89255e-06 
37 29154 34936 1 1 8.72023e-05 -9.94505e-06 -8.12146e-05 3.01586e-05 5.74689e-05 -6.55408e-06 -5.35228e-05 1.98754e-05 9.01442e-06 8.3015e-06 2.53278e-05 2.81367e-05 
38 35339 44251 1 1 9.36926e-05 -4.50259e-05 -2.86886e-05 -7.69931e-05 3.24337e-05 -1.55867e-05 -9.93118e-06 -2.66528e-05 9.12402e-06 7.15928e-06 -8.0034e-06 1.4091e-05 
39 27118 34713 1 1 9.56538e-05 -3.70164e-05 -8.21594e-05 3.20825e-05 0.000122678 -4.74743e-05 -0.000105371 4.11465e-05 1.62345e-05 -2.77193e-05 -5.22547e-05 6.1339e-05 
40 37003 38751 1 1 0.000106064 4.04719e-05 -8.77431e-05 -4.37352e-05 2.15478e-05 8.22221e-06 -1.78257e-05 -8.88517e-06 4.00025e-06 5.8794e-06 -8.09368e-06 1.07739e-05 
41 30230 17696 1 1 0.000103257 1.33849e-05 -3.2865e-05 -9.69673e-05 0.000108874 1.41131e-05 -3.46529e-05 -0.000102242 -9.07549e-06 1.25804e-05 -5.51658e-06 1.6464e-05 
42 9484 26016 2 1 0.000121867 -6.93087e-06 -7.32148e-05 -9.71757e-05 0.00021286 -1.21059e-05 -0.000127881 -0.000169733 2.93167e-05 4.52975e-05 -3.62193e-05 6.4986e-05 
43 31099 41778 1 1 0.000104882 -5.97838e-05 4.0914e-05 -7.58431e-05 0.000173986 -9.91741e-05 6.78713e-05 -0.000125814 -1.21284e-05 -4.88758e-06 6.92365e-06 1.47961e-05 
44 40649 41778 1 1 0.000106372 -3.97727e-05 -9.80676e-05 -1.0762e-05 0.000219434 -8.20473e-05 -0.000202304 -2.22009e-05 -7.81051e-05 3.86182e-05 -6.32541e-05 0.00010767 
45 38723 39441 1 1 0.000107057 5.87423e-05 5.06308e-05 -7.38044e-05 3.12214e-05 1.71312e-05 1.47657e-05 -2.15238e-05 -9.76995e-06 -4.90746e-06 -1.11427e-05 1.56107e-05 
46 45304 39222 1 1 9.72316e-05 4.09762e-05 -2.50453e-06 -8.81401e-05 5.78074e-05 2.43617e-05 -1.48902e-06 -5.24022e-05 -1.19929e-05 -2.58488e-05 -4.841e-06 2.89037e-05 
47 44290 42085 1 1 0.000100759 -1.04417e-05 -7.62963e-05 -6.49781e-05 0.000219469 -2.27437e-05 -0.000166186 -0.000141533 -3.91104e-05 4.7256e-05 -4.92024e-05 7.8636e-05 
48 41954 43655 1 1 0.000101181 -5.10896e-06 -0.000101033 -1.94979e-06 1.36475e-05 -6.89106e-07 -1.36275e-05 -2.62991e-07 -4.51661e-06 1.29711e-07 5.11339e-06 6.82373e-06 
49 44974 38399 1 1 0.000111896 -3.5908e-05 -9.58444e-05 4.52233e-05 4.33105e-06 -1.38986e-06 -3.70976e-06 1.75042e-06 -1.48204e-06 -1.8465e-07 -1.56811e-06 2.16553e-06 
50 45514 54099 1 1 0.000100612 4.40939e-05 -8.79515e-05 2.10504e-05 8.61231e-05 3.77439e-05 -7.52855e-05 1.80189e-05 -3.79599e-05 -1.99582e-05 -3.87419e-06 4.30616e-05 
51 53030 48527 1 1 9.32375e-05 -5.14542e-05 7.42377e-05 -2.31184e-05 8.88676e-05 -4.90426e-05 7.07583e-05 -2.20349e-05 -2.51212e-05 -2.15953e-05 -1.34349e-05 3.57481e-05 
52 55291 50038 1 1 0.000109401 -0.000103388 -2.81346e-05 -2.20924e-05 9.06431e-05 -8.56606e-05 -2.33106e-05 -1.83044e-05 -1.02854e-05 3.94814e-05 -2.14603e-06 4.08556e-05 
53 52907 40035 1 1 9.57039e-05 8.02192e-05 4.70955e-05 -2.24974e-05 0.00017249 0.000144581 8.48815e-05 -4.05477e-05 -4.98347e-06 -2.4625e-05 -6.93188e-05 7.37314e-05 
54 55362 55054 1 1 9.45251e-05 2.79764e-05 -8.76452e-05 2.16944e-05 3.38942e-05 1.00316e-05 -3.14273e-05 7.77905e-06 -1.14382e-05 -6.3217e-06 -1.07893e-05 1.69471e-05 
55 53335 54488 1 1 0.000110976 -6.90507e-05 -8.26414e-05 -2.67972e-05 1.43883e-05 -8.9526e-06 -1.07147e-05 -3.47432e-06 -3.93996e-06 1.39318e-06 5.85592e-06 7.19416e-06 
56 51276 47691 1 1 0.000110362 -1.25906e-05 -2.58153e-05 -0.000106559 6.25047e-06 -7.13084e-07 -1.46208e-06 -6.03508e-06 -2.76e-06 1.46582e-06 -2.90032e-08 3.12523e-06 
57 60351 60641 1 1 0.00010888 6.72512e-05 2.19905e-05 -8.27563e-05 7.16211e-05 4.42376e-05 1.44653e-05 -5.44368e-05 7.8062e-06 1.78069e-05 1.10754e-05 2.23761e-05 
58 58528 57599 1 1 0.000105762 4.56245e-05 -2.71178e-05 -9.14808e-05 0.000145795 6.28938e-05 -3.73821e-05 -0.000126107 5.09112e-05 -3.73242e-05 3.64551e-05 7.28973e-05 
59 56140 56071 1 1 9.23564e-05 -8.84943e-05 -2.63393e-05 2.16819e-06 0.000145218 -0.000139146 -4.14152e-05 3.40919e-06 -1.18766e-05 3.94069e-05 -6.02283e-06 4.1596e-05 
60 61993 61339 1 1 9.77307e-05 -9.13863e-06 -9.72848e-05 1.8545e-06 0.00043874 -4.10258e-05 -0.000436738 8.32535e-06 -0.000103866 1.05506e-05 4.1639e-05 0.000112397 
61 62336 47404 1 1 9.0152e-05 2.85963e-05 -6.24516e-05 5.83904e-05 0.000262115 8.31432e-05 -0.000181577 0.000169769 1.39188e-05 -3.36608e-05 -4.28187e-05 5.62159e-05 
62 70744 72466 1 1 0.000110293 -5.95016e-05 7.2801e-05 -5.7656e-05 6.31325e-06 -3.4059e-06 4.16717e-06 -3.30026e-06 1.65504e-06 2.33659e-06 1.24234e-06 3.12126e-06 
63 68949 70889 1 1 9.65108e-05 -9.48869e-05 -6.93113e-06 1.62103e-05 2.26813e-05 -2.22997e-05 -1.62891e-06 3.80963e-06 -1.91114e-07 4.86236e-07 -9.10782e-07 1.04999e-06 
64 67641 72970 1 1 0.00010466 8.97821e-06 -3.2759e-05 -9.89947e-05 4.93822e-06 4.23623e-07 -1.54569e-06 -4.67091e-06 1.96945e-06 -1.35135e-06 6.25802e-07 2.46911e-06 
65 14313 27728 1 1 9.29482e-05 7.54848e-06 5.90494e-05 -7.13832e-05 3.61477e-05 2.93562e-06 2.29644e-05 -2.77611e-05 -1.15303e-05 -1.01012e-05 -9.57513e-06 1.80739e-05 
66 29292 23242 1 1 0.00011113 3.72645e-05 -8.90593e-05 5.5043e-05 7.25015e-05 2.43114e-05 -5.81024e-05 3.59101e-05 -7.69897e-06 -2.47983e-06 1.1999e-06 8.17701e-06 
67 34173 29038 1 1 0.000104545 8.05608e-06 -4.96326e-05 -9.16593e-05 6.66256e-05 5.13405e-06 -3.16303e-05 -5.84135e-05 4.45381e-06 4.57756e-07 1.43582e-07 4.47957e-06 
68 19790 34902 1 1 8.79543e-05 4.67812e-05 4.12185e-05 -6.20365e-05 3.40254e-05 1.80974e-05 1.59455e-05 -2.3999e-05 4.9808e-06 9.82048e-06 1.02809e-05 1.50648e-05 
69 15037 34645 1 1 9.57481e-05 -7.87817e-05 9.78499e-06 -5.35293e-05 2.77495e-05 -2.28323e-05 2.83586e-06 -1.55137e-05 -2.03489e-06 -1.37161e-05 4.87594e-07 1.38747e-05 
70 30277 27025 1 1 0.000111063 -6.97024e-05 7.73331e-05 -3.86806e-05 1.76135e-05 -1.10541e-05 1.22643e-05 -6.13437e-06 -6.31447e-06 -3.01731e-06 5.34624e-06 8.80676e-06 
71 30967 29070 1 1 9.36907e-05 -4.86732e-05 6.63343e-05 -4.48177e-05 0.000202521 -0.000105211 0.000143387 -9.68774e-05 -2.40621e-05 1.76507e-05 5.22566e-05 6.01771e-05 
72 37583 37113 1 1 9.03425e-05 -8.68626e-05 8.40401e-06 2.33671e-05 3.68333e-05 -3.54145e-05 3.42638e-06 9.52695e-06 -3.13873e-06 6.5434e-06 -1.40209e-05 1.57878e-05 
73 35759 27593 1 1 0.000112374 5.87907e-05 -8.41141e-05 -4.57875e-05 6.68169e-05 3.49564e-05 -5.00135e-05 -2.72248e-05 -1.24973e-05 -1.12532e-05 4.62632e-06 1.74419e-05 
74 30425 37013 1 1 0.000101806 -9.8438e-05 -2.59601e-05 -7.32769e-07 2.10564e-05 -2.03598e-05 -5.3693e-06 -1.51558e-07 2.67631e-06 -1.01154e-05 -1.16631e-06 1.05282e-05 
75 34814 32392 1 1 0.00011193 -9.49893e-05 -5.78753e-05 -1.24791e-05 1.38059e-05 -1.17164e-05 -7.13857e-06 -1.53923e-06 -2.49535e-06 2.85143e-06 5.77001e-06 6.90293e-06 
76 46681 30705 1 1 0.000109586 7.1883e-05 -2.19417e-05 -7.9752e-05 5.44707e-05 3.57302e-05 -1.09064e-05 -3.96416e-05 6.34389e-06 1.11689e-05 2.64513e-06 1.31143e-05 
77 42866 30091 1 1 0.000113501 -4.50276e-05 1.75939e-05 -0.000102692 0.000182098 -7.22407e-05 2.82269e-05 -0.000164755 -7.76686e-05 -3.88122e-05 2.74061e-05 9.10488e-05 
78 41213 33040 1 1 9.52487e-05 -9.23197e-05 1.22279e-05 -1.99964e-05 0.000178839 -0.000173339 2.29592e-05 -3.75453e-05 6.79006e-06 2.25693e-05 -1.75472e-05 2.93834e-05 
79 40932 43354 1 1 8.2297e-05 2.93413e-05 -2.20332e-06 -7.68573e-05 1.04199e-06 3.71499e-07 -2.78968e-08 -9.73112e-07 2.51909e-07 4.48368e-07 8.3316e-08 5.20993e-07 
80 41898 28285 1 1 0.000105961 -2.10828e-05 7.7386e-05 -6.92434e-05 0.000124794 -2.483e-05 9.11406e-05 -8.15508e-05 1.68523e-05 -3.74463e-05 -4.69808e-05 6.23972e-05 
81 44310 38562 1 1 8.99528e-05 -1.0335e-05 1.1795e-05 -8.85752e-05 0.000237313 -2.72657e-05 3.11175e-05 -0.000233678 -6.82698e-05 8.6434e-05 1.94756e-05 0.000111852 
82 46106 42334 1 1 0.000109242 -6.62567e-06 -8.84215e-05 6.3808e-05 3.4799e-05 -2.11061e-06 -2.81667e-05 2.03261e-05 1.61417e-05 -4.5526e-06 -4.63262e-06 1.73995e-05 
83 43272 42776 1 1 0.000108932 -0.000107966 -6.97609e-06 -1.26791e-05 5.98655e-05 -5.93349e-05 -3.83384e-06 -6.96806e-06 -3.22357e-06 -3.76278e-06 2.95198e-05 2.99328e-05 
84 46258 39937 1 1 0.000104653 4.94377e-06 -0.000103427 -1.51815e-05 5.77555e-05 2.72836e-06 -5.70794e-05 -8.37834e-06 -1.29609e-05 -3.70368e-07 -1.69745e-06 1.30769e-05 
85 36872 45131 1 1 8.77718e-05 7.13667e-05 -3.92814e-05 -3.26749e-05 2.17687e-05 1.77e-05 -9.74235e-06 -8.10383e-06 -1.44515e-06 5.22518e-06 -9.43809e-06 1.08843e-05 
86 32920 28205 1 1 8.88264e-05 -5.38908e-05 4.92051e-05 -5.06436e-05 2.84778e-05 -1.72774e-05 1.57752e-05 -1.62364e-05 -9.29604e-06 -1.07705e-05 -5.72434e-07 1.42389e-05 
87 38600 39084 1 1 9.21466e-05 7.10757e-05 -2.25074e-05 -5.4154e-05 2.48449e-05 1.91637e-05 -6.06853e-06 -1.46012e-05 4.29257e-06 -8.19104e-07 5.97432e-06 7.402e-06 
88 41725 55803 1 1 0.000103004 -5.56822e-05 -7.0952e-05 -4.97515e-05 4.2857e-05 -2.31677e-05 -2.9521e-05 -2.07001e-05 -1.33044e-05 1.53013e-05 -6.93132e-06 2.14285e-05 
89 42603 40221 1 1 0.000102545 1.67369e-05 -0.000101141 -2.41922e-06 4.44769e-06 7.25935e-07 -4.3868e-06 -1.04929e-07 -2.15762e-06 -3.47194e-07 -4.11878e-07 2.22385e-06 
90 40033 51246 1 1 0.000104759 -8.70829e-06 -9.9525e-05 3.15194e-05 4.31086e-05 -3.58347e-06 -4.09546e-05 1.29703e-05 1.49077e-06 2.5556e-06 8.48139e-06 8.98262e-06 
91 39800 50531 1 1 0.000100882 -5.01727e-05 1.01822e-05 -8.69266e-05 0.00010286 -5.11561e-05 1.03818e-05 -8.86305e-05 1.73803e-05 2.11496e-05 -7.55427e-06 2.8398e-05 
92 35728 55023 1 1 0.000110308 -4.2357e-05 -7.58006e-05 6.80294e-05 4.77035e-05 -1.83176e-05 -3.27805e-05 2.94198e-05 3.17777e-06 -1.32254e-05 -1.27576e-05 1.86485e-05 
93 49239 55727 1 1 9.99585e-05 3.75404e-05 8.19603e-05 -4.31848e-05 0.000119214 4.47719e-05 9.77485e-05 -5.15036e-05 -1.0676e-05 2.05734e-05 2.97657e-05 3.77259e-05 
94 52769 50387 1 1 9.834e-05 2.75864e-05 8.75525e-05 -3.52748e-05 0.000145641 4.08553e-05 0.000129665 -5.22418e-05 4.49801e-05 -1.36932e-05 1.18971e-06 4.70332e-05 
95 49353 53757 1 1 9.47337e-05 -8.84255e-05 -2.52372e-05 -2.27706e-05 0.000126929 -0.000118477 -3.3814e-05 -3.05092e-05 1.34843e-05 -1.0079e-05 -4.11931e-05 4.45004e-05 
96 52209 49795 1 1 9.16591e-05 -9.00849e-05 -1.34283e-05 -1.02855e-05 8.98206e-05 -8.82779e-05 -1.31589e-05 -1.00792e-05 3.97689e-06 -4.0774e-05 1.84012e-05 4.49103e-05 
97 49391 55652 1 1 9.03135e-05 -6.8778e-05 1.53783e-05 -5.64768e-05 6.36114e-05 -4.84431e-05 1.08315e-05 -3.97789e-05 -1.81448e-06 1.69915e-05 6.83637e-06 1.84049e-05 
98 48208 53507 1 1 0.000100453 8.26106e-05 4.60638e-05 -3.38292e-05 1.2739e-05 1.04763e-05 5.8416e-06 -4.29007e-06 3.62075e-06 -4.06265e-06 3.3099e-06 6.36949e-06 
99 54123 49024 1 1 9.63609e-05 3.47551e-05 -8.92909e-05 -1.02294e-05 0.000130698 4.71398e-05 -0.000121109 -1.38746e-05 5.11747e-05 2.37011e-05 -3.30138e-05 6.53491e-05 
100 55219 45752 1 1 8.83161e-05 7.42437e-05 -1.18848e-05 -4.6329e-05 1.15704e-05 9.72674e-06 -1.55704e-06 -6.06961e-06 1.9278e-06 5.16094e-06 1.76543e-06 5.7852e-06 
101 11541 50200 2 1 0.000117012 9.32404e-05 -5.00526e-05 -4.99265e-05 0.00012657 0.000100857 -5.41414e-05 -5.4005e-05 -3.75179e-05 -2.64147e-05 -4.35853e-05 6.32851e-05 
102 58241 52468 1 1 0.00010375 -3.61801e-05 -9.56618e-05 -1.74335e-05 2.49036e-06 -8.68449e-07 -2.29621e-06 -4.18465e-07 -1.84105e-07 -1.53059e-07 1.22195e-06 1.24518e-06 
103 50372 61575 1 1 0.000104685 -1.97309e-05 -7.05211e-05 -7.48097e-05 0.000135313 -2.55035e-05 -9.11535e-05 -9.66968e-05 2.73331e-05 4.1274e-05 -4.6117e-05 6.76566e-05 
104 57195 62659 1 1 0.000111065 -6.68625e-05 6.78164e-05 -5.7146e-05 4.51896e-05 -2.72048e-05 2.75929e-05 -2.32514e-05 1.31071e-05 1.75619e-05 5.5053e-06 2.25948e-05 
105 61351 54260 1 1 0.000105626 -6.06993e-05 -8.47233e-05 -1.71573e-05 1.36287e-05 -7.8319e-06 -1.09317e-05 -2.21378e-06 5.00753e-06 -4.04158e-06 2.24174e-06 6.81434e-06 
106 56783 60775 1 1 0.000103115 -1.5242e-05 -9.79832e-05 -2.82767e-05 6.54025e-05 -9.66757e-06 -6.21479e-05 -1.79351e-05 -3.22937e-05 4.14173e-06 3.05556e-06 3.27013e-05 
107 59168 62649 1 1 8.62103e-05 -4.80163e-06 -2.34339e-06 -8.60445e-05 8.31628e-05 -4.6319e-06 -2.26056e-06 -8.3003e-05 2.36302e-05 3.41405e-05 -2.24846e-06 4.15814e-05 
108 61234 60384 1 1 9.53e-05 9.31166e-06 1.14329e-05 -9.41524e-05 0.000248923 2.4322e-05 2.98627e-05 -0.000245926 8.14485e-05 -9.50806e-06 6.90069e-06 8.22915e-05 
109 64151 63620 1 1 8.79738e-05 -1.39687e-05 -8.48654e-05 1.84968e-05 0.000130196 -2.06728e-05 -0.000125596 2.73743e-05 6.26291e-05 -6.72648e-06 1.64352e-05 6.50982e-05 
110 13923 26072 1 1 0.000106279 8.19546e-05 -3.19727e-05 -5.96361e-05 6.39211e-05 4.92911e-05 -1.92298e-05 -3.58678e-05 1.13905e-05 2.44381e-05 2.5513e-06 2.70827e-05 
111 16487 20351 1 1 9.75522e-05 4.23049e-05 1.49916e-06 -8.7889e-05 0.000151572 6.57314e-05 2.32932e-06 -0.000136558 -6.44618e-05 2.55399e-05 -3.05927e-05 7.5786e-05 
112 12633 29734 1 1 0.000104636 -6.94295e-05 5.32114e-05 -5.74177e-05 0.00017175 -0.000113962 8.73416e-05 -9.42458e-05 4.06942e-05 1.28483e-05 -3.73005e-05 5.66783e-05 
113 12558 24133 1 1 9.50552e-05 -8.95226e-05 -3.1083e-05 -7.41834e-06 5.74517e-05 -5.41078e-05 -1.87867e-05 -4.48367e-06 -4.60962e-06 6.70103e-06 2.75503e-05 2.87258e-05 
114 15254 15805 1 1 0.000105484 4.36364e-05 -9.60289e-05 1.06594e-06 0.000233711 9.66813e-05 -0.000212763 2.3617e-06 -2.33813e-05 -1.18887e-05 -0.000113873 0.000116855 
115 20185 20011 1 1 0.000101185 -8.7162e-05 5.13708e-05 -1.51443e-06 4.23717e-05 -3.64994e-05 2.15117e-05 -6.34172e-07 8.46917e-06 1.45832e-05 7.23974e-06 1.83524e-05 
116 30503 30281 1 1 9.5334e-05 -3.59438e-05 8.75166e-05 -1.17239e-05 6.73845e-05 -2.5406e-05 6.1859e-05 -8.28675e-06 -2.92091e-05 -1.02104e-05 1.33321e-05 3.36922e-05 
117 34830 25324 1 1 8.98623e-05 4.5228e-05 -6.22274e-05 -4.6448e-05 7.35645e-05 3.70253e-05 -5.09415e-05 -3.8024e-05 2.51752e-05 -1.6796e-06 2.67642e-05 3.67822e-05 
118 33342 33860 1 1 9.73202e-05 5.76535e-05 -7.08701e-05 3.3537e-05 4.94462e-05 2.92924e-05 -3.60075e-05 1.70394e-05 -8.10915e-06 -3.39349e-06 6.76933e-06 1.1095e-05 
119 10559 23108 2 1 0.00012044 -8.29382e-05 3.61276e-05 -7.95099e-05 0.000302978 -0.000208639 9.08823e-05 -0.000200015 6.73786e-06 -5.67377e-05 -3.28087e-05 6.58861e-05 
120 45111 41473 1 1 0.000108007 -4.11899e-05 7.19959e-05 -6.91775e-05 0.000115751 -4.4143e-05 7.71576e-05 -7.41372e-05 -1.14167e-05 9.2563e-06 1.64312e-05 2.20455e-05 
121 42893 30995 1 1 9.5306e-05 3.40791e-05 -8.8308e-05 -1.11152e-05 0.000117977 4.21856e-05 -0.000109314 -1.37591e-05 4.11212e-05 1.07197e-05 4.09115e-05 5.89883e-05 
122 10157 27821 2 1 0.000125132 -4.05915e-05 2.16136e-05 -0.000116375 9.00868e-05 -2.92232e-05 1.55604e-05 -8.37825e-05 -1.75191e-05 -1.15174e-05 3.97158e-06 2.13388e-05 
123 25853 45516 1 1 0.000100701 -2.80504e-06 3.28489e-05 -9.51509e-05 6.1052e-05 -1.70062e-06 1.99154e-05 -5.76873e-05 -1.04226e-05 -2.72143e-05 -9.0879e-06 3.0526e-05 
124 41127 40459 1 1 0.000118046 6.97736e-05 -9.42275e-05 1.36969e-05 7.07592e-06 4.18239e-06 -5.64821e-06 8.21026e-07 -2.81218e-06 -2.12586e-06 -2.99231e-07 3.53796e-06 
125 45230 46866 1 1 9.16206e-05 -1.31022e-05 -8.88606e-05 -1.80685e-05 0.000272543 -3.89749e-05 -0.000264333 -5.37482e-05 -7.45501e-05 3.13778e-06 3.86276e-05 8.40217e-05 
126 43925 43080 1 1 9.26747e-05 -4.72828e-06 -7.0259e-07 -9.25514e-05 0.000204845 -1.04512e-05 -1.55298e-06 -0.000204572 -5.87157e-05 3.6119e-06 2.97226e-06 5.89017e-05 
127 34704 42102 1 1 0.0001135 -3.15903e-05 6.70445e-05 -8.59615e-05 0.00022836 -6.3559e-05 0.000134892 -0.000172953 -2.16964e-05 -1.34722e-05 -2.53416e-06 2.56643e-05 
128 37554 45680 1 1 8.48439e-05 -8.34446e-05 6.14983e-06 -1.40598e-05 4.17989e-05 -4.11095e-05 3.02975e-06 -6.92666e-06 5.57653e-07 -1.77232e-05 -1.10618e-05 2.08994e-05 
129 44739 44663 1 1 0.000107685 8.90247e-05 -3.69788e-05 -4.79917e-05 0.000131251 0.000108507 -4.50714e-05 -5.84944e-05 -3.65653e-05 -4.0005e-05 -3.70039e-05 6.56256e-05 
130 38675 39068 1 1 0.000100021 -6.00088e-05 -5.61502e-05 -5.70121e-05 2.35913e-05 -1.41538e-05 -1.32437e-05 -1.3447e-05 6.49661e-06 2.67685e-06 -9.47447e-06 1.17956e-05 
131 30741 32751 1 1 0.000104826 -7.89627e-05 -4.38351e-05 -5.32156e-05 4.527e-05 -3.41007e-05 -1.89306e-05 -2.29816e-05 1.08563e-05 -1.986e-05 2.50374e-07 2.2635e-05 
132 11967 52343 2 1 0.000125036 -3.16451e-05 -1.29999e-05 -0.000120265 0.000213746 -5.40964e-05 -2.2223e-05 -0.00020559 8.97833e-05 -3.03417e-05 -2.03447e-05 9.69307e-05 
133 12265 56320 2 1 0.0001149 2.34429e-05 3.80683e-05 -0.000105846 0.000156793 3.19902e-05 5.19481e-05 -0.000144437 -2.62094e-05 -2.99971e-05 -1.65936e-05 4.31521e-05 
134 54545 50214 1 1 9.19831e-05 -4.84459e-05 -7.47818e-05 -2.28379e-05 1.46503e-05 -7.71604e-06 -1.19106e-05 -3.63743e-06 2.31714e-06 -1.78604e-06 9.32995e-07 3.07076e-06 
135 48209 49367 1 1 0.000103274 8.3643e-06 2.83619e-05 -9.89502e-05 1.03367e-05 8.37185e-07 2.83875e-06 -9.90395e-06 -4.3594e-06 -2.54937e-06 -1.09922e-06 5.16836e-06 
136 57755 64066 1 1 8.97506e-05 -4.72979e-05 4.94563e-05 -5.80702e-05 5.67761e-05 -2.99206e-05 3.1286e-05 -3.67351e-05 -1.08979e-05 -2.17403e-05 -9.63919e-06 2.61595e-05 
137 72793 68182 1 1 0.000103852 -6.92836e-05 -7.61662e-05 1.35514e-05 8.56738e-06 -5.71565e-06 -6.28344e-06 1.11794e-06 -7.77335e-07 6.32317e-07 -4.20275e-07 1.0866e-06 
ITEM: TIMESTEP
220000
ITEM: NUMBER OF ENTRIES
195
ITEM: BOX BOUNDS ff ff ff
0.0000000000000000e+00 1.2000000000000000e-02
0.0000000000000000e+00 2.3999999999999998e-03
0.0000000000000000e+00 3.2000000000000001e-02
ITEM: ENTRIES index c_cids[1] c_cids[2] c_cids[3] c_cids[4] c_cpair[1] c_cpair[2] c_cpair[3] c_cpair[4] c_cpair[5] c_cpair[6] c_cpair[7] c_cpair[8] c_cpair[9] c_cpair[10] c_cpair[11] c_cpair[12]
1 19945 13425 1 1 0.000112207 -0.000103628 -2.70443e-05 -3.34705e-05 4.51614e-05 -4.17085e-05 -1.08848e-05 -1.34713e-05 5.00728e-06 -2.19084e-05 2.19902e-06 2.25807e-05 
2 22401 22308 1 1 0.000106914 3.43847e-05 -5.63843e-05 -8.4078e-05 3.39601e-06 1.09219e-06 -1.79099e-06 -2.67065e-06 9.39737e-07 -9.66502e-07 1.03247e-06 1.69801e-06 
3 18975 25143 1 1 9.75917e-05 -7.50661e-05 -3.07575e-05 -5.42512e-05 7.4027e-06 -5.69405e-06 -2.33308e-06 -4.11516e-06 -1.00565e-06 3.51135e-06 -5.99251e-07 3.70135e-06 
4 15945 24332 1 1 0.000106353 7.65861e-05 -4.9195e-05 -5.50039e-05 0.000152117 0.000109541 -7.03634e-05 -7.8672e-05 1.28049e-05 -3.29896e-05 4.73348e-05 5.91004e-05 
5 22040 26961 1 1 0.000103685 -4.14849e-05 -5.48173e-05 7.76181e-05 8.08536e-05 -3.235e-05 -4.27467e-05 6.05268e-05 -2.58649e-05 3.01574e-05 7.47434e-06 4.04268e-05 
6 29986 31282 1 1 9.58752e-05 1.5031e-05 6.48084e-06 -9.44676e-05 2.56103e-05 4.01511e-06 1.73117e-06 -2.52343e-05 -1.26391e-05 -3.07943e-07 -2.03218e-06 1.28052e-05 
7 29511 37914 1 1 9.19529e-05 -5.89294e-05 6.83845e-05 -1.74995e-05 0.000138776 -8.89363e-05 0.000103206 -2.64102e-05 -2.3829e-05 -3.88769e-06 6.50517e-05 6.93878e-05 
8 22954 21210 1 1 9.88095e-05 -9.76568e-05 1.3921e-05 -5.71643e-06 7.82759e-05 -7.73627e-05 1.10281e-05 -4.5285e-06 -1.96262e-06 -2.44083e-05 -2.59122e-05 3.56519e-05 
9 32726 37074 1 1 9.32698e-05 -2.54017e-05 -1.5615e-05 -8.83752e-05 4.3548e-05 -1.18601e-05 -7.29071e-06 -4.12627e-05 2.08639e-05 9.25352e-07 -6.16039e-06 2.1774e-05 
10 30509 31786 1 1 8.34516e-05 -3.26251e-05 -6.05213e-05 -4.72963e-05 3.16007e-05 -1.23542e-05 -2.29177e-05 -1.79097e-05 -5.67544e-06 -1.07283e-06 5.28775e-06 7.83083e-06 
11 39757 47030 1 1 0.000102133 -5.53056e-06 -6.62552e-05 -7.75289e-05 5.47027e-07 -2.96219e-08 -3.54866e-07 -4.15249e-07 -2.3542e-07 1.13699e-07 -8.03723e-08 2.73514e-07 
12 38955 32902 1 1 0.000105068 -6.0995e-05 -3.93832e-05 -7.59471e-05 0.000179727 -0.000104336 -6.73678e-05 -0.000129913 -1.98082e-05 7.01597e-06 1.22702e-05 2.4334e-05 
13 27657 23121 1 1 9.76456e-05 -1.75668e-05 -3.88935e-05 -8.78258e-05 0.000101499 -1.826e-05 -4.04281e-05 -9.12913e-05 -2.3934e-05 -1.31617e-05 1.06159e-05 2.93046e-05 
14 40809 20413 1 1 0.000114728 -0.000113084 1.92587e-05 1.89991e-06 3.96147e-05 -3.9047e-05 6.64986e-06 6.56023e-07 1.80851e-06 9.53848e-06 1.09561e-05 1.46386e-05 
15 32057 29592 1 1 9.48183e-05 6.0665e-05 -5.19683e-05 -5.10839e-05 9.3697e-06 5.99476e-06 -5.13537e-06 -5.04797e-06 2.5978e-06 3.81623e-06 -7.97271e-07 4.68485e-06 
16 42620 43204 1 1 8.94754e-05 -4.56146e-05 -6.279e-05 -4.45261e-05 4.82921e-06 -2.46194e-06 -3.38894e-06 -2.40318e-06 9.6202e-07 -3.22823e-07 -5.30299e-07 1.14495e-06 
17 40022 43517 1 1 9.92239e-05 -7.21356e-05 -4.86588e-05 4.76882e-05 5.78252e-05 -4.20388e-05 -2.83571e-05 2.77914e-05 -4.84526e-06 -2.63546e-06 -1.00183e-05 1.14363e-05 
18 52811 34658 1 1 9.88583e-05 -1.4301e-05 -8.33514e-05 -5.11955e-05 5.54507e-06 -8.02159e-07 -4.67527e-06 -2.87161e-06 -2.58445e-06 -1.64741e-07 9.90158e-07 2.77253e-06 
19 40282 45392 1 1 0.000106388 6.08647e-05 -7.33247e-05 -4.73e-05 5.93238e-05 3.39393e-05 -4.08873e-05 -2.63754e-05 1.23338e-05 7.19234e-06 4.7213e-06 1.50381e-05 
20 41754 49325 1 1 0.000111357 -6.8624e-05 -5.10074e-05 -7.13394e-05 0.000106001 -6.53234e-05 -4.85542e-05 -6.79083e-05 1.79964e-05 3.07102e-05 -3.92691e-05 5.30004e-05 
21 52019 53301 1 1 0.000100538 -1.20678e-06 1.99259e-05 -9.85358e-05 1.19538e-05 -1.43485e-07 2.36916e-06 -1.17158e-05 1.1217e-06 -5.75153e-06 -1.17681e-06 5.97689e-06 
22 51840 48984 1 1 8.84535e-05 8.64491e-05 1.76541e-05 -6.23646e-06 8.27651e-05 8.08897e-05 1.65188e-05 -5.8354e-06 8.49544e-06 -4.03448e-05 3.55521e-06 4.13826e-05 
23 48097 48047 1 1 9.03316e-05 3.88246e-05 1.03291e-05 -8.09059e-05 3.90312e-06 1.67756e-06 4.46306e-07 -3.49584e-06 1.70848e-06 -5.76938e-07 7.46198e-07 1.95156e-06 
24 41700 47205 1 1 0.000108605 8.34325e-06 -8.17405e-05 -7.10214e-05 0.000185438 1.42456e-05 -0.000139567 -0.000121265 2.09815e-05 -2.24384e-05 2.82898e-05 4.17614e-05 
25 51996 38799 1 1 9.50706e-05 3.03846e-05 4.33035e-05 -7.89937e-05 5.69132e-05 1.81895e-05 2.59233e-05 -4.72888e-05 3.72622e-06 2.41096e-05 1.46499e-05 2.84566e-05 
26 48855 53161 1 1 9.98807e-05 -9.49761e-06 6.47166e-05 -7.54831e-05 0.000416608 -3.96151e-05 0.000269936 -0.000314844 0.000109115 3.76406e-05 1.85425e-05 0.000116904 
27 45471 48633 1 1 9.34853e-05 -3.73914e-05 -5.16501e-05 -6.83642e-05 0.00043078 -0.000172299 -0.000238003 -0.000315022 5.32785e-05 5.33851e-05 -6.94735e-05 0.000102543 
28 48381 54928 1 1 0.000112049 -3.38008e-05 -1.86005e-05 -0.000105198 6.17487e-05 -1.86272e-05 -1.02505e-05 -5.79729e-05 1.84741e-05 -1.671e-05 -2.9813e-06 2.50879e-05 
29 56312 48075 1 1 8.25454e-05 -3.91474e-06 2.12715e-05 -7.96614e-05 5.12069e-05 -2.4285e-06 1.31958e-05 -4.94178e-05 -8.45514e-06 -2.34493e-05 -5.84603e-06 2.56034e-05 
30 60392 57266 1 1 0.000108398 5.99516e-05 -1.5948e-05 -8.88907e-05 8.61419e-05 4.76425e-05 -1.26736e-05 -7.06399e-05 -1.52169e-05 3.66097e-05 -1.68311e-05 4.30709e-05 
31 58644 63217 1 1 0.000105347 7.67986e-05 3.63268e-05 -6.22916e-05 0.000172863 0.000126019 5.96086e-05 -0.000102214 -5.85905e-06 -7.11523e-05 -4.87177e-05 8.64315e-05 
32 63071 64765 1 1 8.22418e-05 -2.52076e-05 -6.04262e-05 4.97691e-05 0.000141159 -4.32661e-05 -0.000103715 8.54231e-05 -2.62761e-06 8.81551e-06 9.37233e-06 1.31323e-05 
33 60591 61602 1 1 0.000100478 -4.06266e-05 -9.07073e-05 -1.47458e-05 5.48208e-05 -2.21659e-05 -4.949e-05 -8.04532e-06 -1.3872e-05 2.3896e-06 2.35199e-05 2.74104e-05 
34 57308 61390 1 1 9.91481e-05 5.01493e-05 4.14341e-05 -7.48239e-05 7.53996e-05 3.81372e-05 3.15095e-05 -5.69016e-05 2.88908e-06 3.20297e-05 1.96729e-05 3.76998e-05 
35 61088 72747 1 1 8.57623e-05 2.48892e-05 4.19287e-05 -7.05527e-05 7.86091e-05 2.28133e-05 3.84316e-05 -6.46681e-05 1.47672e-05 -2.55095e-05 -9.95052e-06 3.11098e-05 
36 74073 59646 1 1 0.000107712 4.25474e-05 -9.18478e-05 3.68178e-05 2.89491e-06 1.14352e-06 -2.46854e-06 9.89531e-07 -2.44051e-07 4.32013e-07 1.35975e-06 1.44746e-06 