LAMMPS (22 Jul 2025 - Update 4)
  using 1 OpenMP thread(s) per MPI task
# Continuous-feed Helium Extraction and Acquisition Testbed (HEAT)-like tube-bank DEM test.

variable        run_label string test
variable        lx equal 1.2e-2
variable        ly equal 2.4e-3
variable        lz equal 3.2e-2
variable        g_accel equal 9.81
variable        dlo equal 8.0e-5
variable        dhi equal 1.2e-4
variable        rho equal 3300.0
variable        npart equal 500000
variable        tube_diameter equal 1.4e-4
variable        tube_density equal 7800.0
variable        bank_zlo equal 5.2e-3
variable        bank_zhi equal 2.72e-2
variable        outlet_zhi equal 1.2e-3
variable        outlet_every equal 1000
variable        outlet_max equal 100000
variable        outlet_seed equal 928371
variable        kn equal 1.0e3
variable        gamma equal 2.0
variable        mu equal 0.5
variable        dt equal 2.0e-7
variable        nsteps equal 600000
variable        thermo_every equal 20000
variable        global_every equal 2000
variable        sync_every equal 20000
variable        contact_every equal 20000
variable        traj_every equal 100000
variable        dump_start equal 200000
variable        dump_stop equal 600000
variable        feed_xlo equal 5.0e-4
variable        feed_xhi equal 1.15e-2
variable        feed_ylo equal 2.0e-4
variable        feed_yhi equal 2.2e-3
variable        feed_zlo equal 2.85e-2
variable        feed_zhi equal 3.1e-2

include         in.heat_tube_bank_body
# Shared body for continuous-feed Helium Extraction and Acquisition Testbed (HEAT)-like tube-bank DEM runs.

units           si
atom_style      sphere
boundary        f f f
newton          off
comm_modify     mode single vel yes
processors      * 1 *

region          box block 0 ${lx} 0 ${ly} 0 ${lz} units box
region          box block 0 0.012 0 ${ly} 0 ${lz} units box
region          box block 0 0.012 0 0.0024 0 ${lz} units box
region          box block 0 0.012 0 0.0024 0 0.032 units box
create_box      2 box
Created orthogonal box = (0 0 0) to (0.012 0.0024 0.032)
  2 by 1 by 8 MPI processor grid

include         tube_particles.in
# Generated by make_tube_particles.py
# Fixed type-2 beads approximating cylindrical heat-pipe tube surfaces.
# tube_radius_m = 4.50000000e-04
# bead_spacing_m = 1.05000000e-04
# n_tubes = 21
# nphi = 27
create_atoms 2 single 2.45000000e-03 5.77500000e-05 6.00000000e-03 units box
Created 1 atoms
  using box units in orthogonal box = (0 0 0) to (0.012 0.0024 0.032)
  create_atoms CPU = 0.001 seconds
create_atoms 2 single 2.43787019e-03 5.77500000e-05 6.10377714e-03 units box
Created 1 atoms
  using box units in orthogonal box = (0 0 0) to (0.012 0.0024 0.032)
  create_atoms CPU = 0.000 seconds
create_atoms 2 single 2.40213469e-03 5.77500000e-05 6.20195963e-03 units box
Created 1 atoms
  using box units in orthogonal box = (0 0 0) to (0.012 0.0024 0.032)
  create_atoms CPU = 0.000 seconds
create_atoms 2 single 2.34472000e-03 5.77500000e-05 6.28925442e-03 units box
Created 1 atoms
  using box units in orthogonal box = (0 0 0) to (0.012 0.0024 0.032)
  create_atoms CPU = 0.000 seconds
create_atoms 2 single 2.26872137e-03 5.77500000e-05 6.36095544e-03 units box
Created 1 atoms
  using box units in orthogonal box = (0 0 0) to (0.012 0.0024 0.032)
  create_atoms CPU = 0.000 seconds
create_atoms 2 single 2.17823589e-03 5.77500000e-05 6.41319725e-03 units box
Created 1 atoms
  using box units in orthogonal box = (0 0 0) to (0.012 0.0024 0.032)
  create_atoms CPU = 0.000 seconds
create_atoms 2 single 2.07814168e-03 5.77500000e-05 6.44316349e-03 units box
Created 1 atoms
  using box units in orthogonal box = (0 0 0) to (0.012 0.0024 0.032)
  create_atoms CPU = 0.000 seconds
create_atoms 2 single 1.97383483e-03 5.77500000e-05 6.44923867e-03 units box
Created 1 atoms
  using box units in orthogonal box = (0 0 0) to (0.012 0.0024 0.032)
  create_atoms CPU = 0.000 seconds
create_atoms 2 single 1.87093855e-03 5.77500000e-05 6.43109528e-03 units box
Created 1 atoms
  using box units in orthogonal box = (0 0 0) to (0.012 0.0024 0.032)
  create_atoms CPU = 0.000 seconds
create_atoms 2 single 1.77500000e-03 5.77500000e-05 6.38971143e-03 units box
Created 1 atoms
  using box units in orthogonal box = (0 0 0) to (0.012 0.0024 0.032)
  create_atoms CPU = 0.000 seconds
create_atoms 2 single 1.69119126e-03 5.77500000e-05 6.32731814e-03 units box
Created 1 atoms
  using box units in orthogonal box = (0 0 0) to (0.012 0.0024 0.032)
  create_atoms CPU = 0.000 seconds
create_atoms 2 single 1.62403048e-03 5.77500000e-05 6.24727904e-03 units box
Created 1 atoms
  using box units in orthogonal box = (0 0 0) to (0.012 0.0024 0.032)
  create_atoms CPU = 0.000 seconds
create_atoms 2 single 1.57713832e-03 5.77500000e-05 6.15390906e-03 units box
Created 1 atoms
  using box units in orthogonal box = (0 0 0) to (0.012 0.0024 0.032)
  create_atoms CPU = 0.000 seconds
create_atoms 2 single 1.55304274e-03 5.77500000e-05 6.05224181e-03 units box
Created 1 atoms
  using box units in orthogonal box = (0 0 0) to (0.012 0.0024 0.032)
  create_atoms CPU = 0.000 seconds
create_atoms 2 single 1.55304274e-03 5.77500000e-05 5.94775819e-03 units box
Created 1 atoms
  using box units in orthogonal box = (0 0 0) to (0.012 0.0024 0.032)
  create_atoms CPU = 0.000 seconds
create_atoms 2 single 1.57713832e-03 5.77500000e-05 5.84609094e-03 units box
Created 1 atoms
  using box units in orthogonal box = (0 0 0) to (0.012 0.0024 0.032)
  create_atoms CPU = 0.000 seconds
create_atoms 2 single 1.62403048e-03 5.77500000e-05 5.75272096e-03 units box
Created 1 atoms
  using box units in orthogonal box = (0 0 0) to (0.012 0.0024 0.032)
  create_atoms CPU = 0.000 seconds
create_atoms 2 single 1.69119126e-03 5.77500000e-05 5.67268186e-03 units box
Created 1 atoms
  using box units in orthogonal box = (0 0 0) to (0.012 0.0024 0.032)
  create_atoms CPU = 0.000 seconds
create_atoms 2 single 1.77500000e-03 5.77500000e-05 5.61028857e-03 units box
Created 1 atoms
  using box units in orthogonal box = (0 0 0) to (0.012 0.0024 0.032)
  create_atoms CPU = 0.000 seconds
create_atoms 2 single 1.87093855e-03 5.77500000e-05 5.56890472e-03 units box
Created 1 atoms
  using box units in orthogonal box = (0 0 0) to (0.012 0.0024 0.032)
  create_atoms CPU = 0.000 seconds
create_atoms 2 single 1.97383483e-03 5.77500000e-05 5.55076133e-03 units box
Created 1 atoms
  using box units in orthogonal box = (0 0 0) to (0.012 0.0024 0.032)
  create_atoms CPU = 0.000 seconds
create_atoms 2 single 2.07814168e-03 5.77500000e-05 5.55683651e-03 units box
Created 1 atoms
  using box units in orthogonal box = (0 0 0) to (0.012 0.0024 0.032)
  create_atoms CPU = 0.000 seconds
create_atoms 2 single 2.17823589e-03 5.77500000e-05 5.58680275e-03 units box
Created 1 atoms
  using box units in orthogonal box = (0 0 0) to (0.012 0.0024 0.032)
  create_atoms CPU = 0.000 seconds
create_atoms 2 single 2.26872137e-03 5.77500000e-05 5.63904456e-03 units box
Created 1 atoms
  using box units in orthogonal box = (0 0 0) to (0.012 0.0024 0.032)
  create_atoms CPU = 0.000 seconds
create_atoms 2 single 2.34472000e-03 5.77500000e-05 5.71074558e-03 units box
Created 1 atoms
  using box units in orthogonal box = (0 0 0) to (0.012 0.0024 0.032)
  create_atoms CPU = 0.000 seconds
create_atoms 2 single 2.40213469e-03 5.77500000e-05 5.79804037e-03 units box
Created 1 atoms
  using box units in orthogonal box = (0 0 0) to (0.012 0.0024 0.032)
  create_atoms CPU = 0.000 seconds
create_atoms 2 single 2.43787019e-03 5.77500000e-05 5.89622286e-03 units box
Created 1 atoms
  using box units in orthogonal box = (0 0 0) to (0.012 0.0024 0.032)
  create_atoms CPU = 0.000 seconds
create_atoms 2 single 2.45000000e-03 1.62750000e-04 6.00000000e-03 units box
Created 1 atoms
  using box units in orthogonal box = (0 0 0) to (0.012 0.0024 0.032)
  create_atoms CPU = 0.000 seconds
create_atoms 2 single 2.43787019e-03 1.62750000e-04 6.10377714e-03 units box
Created 1 atoms
  using box units in orthogonal box = (0 0 0) to (0.012 0.0024 0.032)
  create_atoms CPU = 0.000 seconds
create_atoms 2 single 2.40213469e-03 1.62750000e-04 6.20195963e-03 units box
Created 1 atoms
  using box units in orthogonal box = (0 0 0) to (0.012 0.0024 0.032)
  create_atoms CPU = 0.000 seconds
create_atoms 2 single 2.34472000e-03 1.62750000e-04 6.28925442e-03 units box
Created 1 atoms
  using box units in orthogonal box = (0 0 0) to (0.012 0.0024 0.032)
  create_atoms CPU = 0.000 seconds
create_atoms 2 single 2.26872137e-03 1.62750000e-04 6.36095544e-03 units box
Created 1 atoms
  using box units in orthogonal box = (0 0 0) to (0.012 0.0024 0.032)
  create_atoms CPU = 0.000 seconds
create_atoms 2 single 2.17823589e-03 1.62750000e-04 6.41319725e-03 units box
Created 1 atoms
  using box units in orthogonal box = (0 0 0) to (0.012 0.0024 0.032)
  create_atoms CPU = 0.000 seconds
create_atoms 2 single 2.07814168e-03 1.62750000e-04 6.44316349e-03 units box
Created 1 atoms
  using box units in orthogonal box = (0 0 0) to (0.012 0.0024 0.032)
  create_atoms CPU = 0.000 seconds
create_atoms 2 single 1.97383483e-03 1.62750000e-04 6.44923867e-03 units box
Created 1 atoms
  using box units in orthogonal box = (0 0 0) to (0.012 0.0024 0.032)
  create_atoms CPU = 0.000 seconds
create_atoms 2 single 1.87093855e-03 1.62750000e-04 6.43109528e-03 units box
Created 1 atoms
  using box units in orthogonal box = (0 0 0) to (0.012 0.0024 0.032)
  create_atoms CPU = 0.000 seconds
create_atoms 2 single 1.77500000e-03 1.62750000e-04 6.38971143e-03 units box
Created 1 atoms
  using box units in orthogonal box = (0 0 0) to (0.012 0.0024 0.032)
  create_atoms CPU = 0.000 seconds
create_atoms 2 single 1.69119126e-03 1.62750000e-04 6.32731814e-03 units box
Created 1 atoms
  using box units in orthogonal box = (0 0 0) to (0.012 0.0024 0.032)
  create_atoms CPU = 0.000 seconds
create_atoms 2 single 1.62403048e-03 1.62750000e-04 6.24727904e-03 units box
Created 1 atoms
  using box units in orthogonal box = (0 0 0) to (0.012 0.0024 0.032)
  create_atoms CPU = 0.000 seconds
create_atoms 2 single 1.57713832e-03 1.62750000e-04 6.15390906e-03 units box
Created 1 atoms
  using box units in orthogonal box = (0 0 0) to (0.012 0.0024 0.032)
  create_atoms CPU = 0.000 seconds
create_atoms 2 single 1.55304274e-03 1.62750000e-04 6.05224181e-03 units box
Created 1 atoms
  using box units in orthogonal box = (0 0 0) to (0.012 0.0024 0.032)
  create_atoms CPU = 0.000 seconds
create_atoms 2 single 1.55304274e-03 1.62750000e-04 5.94775819e-03 units box
Created 1 atoms
  using box units in orthogonal box = (0 0 0) to (0.012 0.0024 0.032)
  create_atoms CPU = 0.000 seconds
create_atoms 2 single 1.57713832e-03 1.62750000e-04 5.84609094e-03 units box
Created 1 atoms
  using box units in orthogonal box = (0 0 0) to (0.012 0.0024 0.032)
  create_atoms CPU = 0.000 seconds
create_atoms 2 single 1.62403048e-03 1.62750000e-04 5.75272096e-03 units box
Created 1 atoms
  using box units in orthogonal box = (0 0 0) to (0.012 0.0024 0.032)
  create_atoms CPU = 0.000 seconds
create_atoms 2 single 1.69119126e-03 1.62750000e-04 5.67268186e-03 units box
Created 1 atoms
  using box units in orthogonal box = (0 0 0) to (0.012 0.0024 0.032)
  create_atoms CPU = 0.000 seconds
create_atoms 2 single 1.77500000e-03 1.62750000e-04 5.61028857e-03 units box
Created 1 atoms
  using box units in orthogonal box = (0 0 0) to (0.012 0.0024 0.032)
  create_atoms CPU = 0.000 seconds
create_atoms 2 single 1.87093855e-03 1.62750000e-04 5.56890472e-03 units box
Created 1 atoms
  using box units in orthogonal box = (0 0 0) to (0.012 0.0024 0.032)
  create_atoms CPU = 0.000 seconds
create_atoms 2 single 1.97383483e-03 1.62750000e-04 5.55076133e-03 units box
Created 1 atoms
  using box units in orthogonal box = (0 0 0) to (0.012 0.0024 0.032)
  create_atoms CPU = 0.000 seconds
create_atoms 2 single 2.07814168e-03 1.62750000e-04 5.55683651e-03 units box
Created 1 atoms
  using box units in orthogonal box = (0 0 0) to (0.012 0.0024 0.032)
  create_atoms CPU = 0.000 seconds
create_atoms 2 single 2.17823589e-03 1.62750000e-04 5.58680275e-03 units box
Created 1 atoms
  using box units in orthogonal box = (0 0 0) to (0.012 0.0024 0.032)
  create_atoms CPU = 0.000 seconds
create_atoms 2 single 2.26872137e-03 1.62750000e-04 5.63904456e-03 units box
Created 1 atoms
  using box units in orthogonal box = (0 0 0) to (0.012 0.0024 0.032)
  create_atoms CPU = 0.000 seconds
create_atoms 2 single 2.34472000e-03 1.62750000e-04 5.71074558e-03 units box
Created 1 atoms
  using box units in orthogonal box = (0 0 0) to (0.012 0.0024 0.032)
  create_atoms CPU = 0.000 seconds
create_atoms 2 single 2.40213469e-03 1.62750000e-04 5.79804037e-03 units box
Created 1 atoms
  using box units in orthogonal box = (0 0 0) to (0.012 0.0024 0.032)
  create_atoms CPU = 0.000 seconds
create_atoms 2 single 2.43787019e-03 1.62750000e-04 5.89622286e-03 units box
Created 1 atoms
  using box units in orthogonal box = (0 0 0) to (0.012 0.0024 0.032)
  create_atoms CPU = 0.000 seconds
create_atoms 2 single 2.45000000e-03 2.67750000e-04 6.00000000e-03 units box
Created 1 atoms
  using box units in orthogonal box = (0 0 0) to (0.012 0.0024 0.032)
  create_atoms CPU = 0.000 seconds
create_atoms 2 single 2.43787019e-03 2.67750000e-04 6.10377714e-03 units box
Created 1 atoms
  using box units in orthogonal box = (0 0 0) to (0.012 0.0024 0.032)
  create_atoms CPU = 0.000 seconds
create_atoms 2 single 2.40213469e-03 2.67750000e-04 6.20195963e-03 units box
Created 1 atoms
  using box units in orthogonal box = (0 0 0) to (0.012 0.0024 0.032)
  create_atoms CPU = 0.000 seconds
create_atoms 2 single 2.34472000e-03 2.67750000e-04 6.28925442e-03 units box
Created 1 atoms
  using box units in orthogonal box = (0 0 0) to (0.012 0.0024 0.032)
  create_atoms CPU = 0.000 seconds
create_atoms 2 single 2.26872137e-03 2.67750000e-04 6.36095544e-03 units box
Created 1 atoms
  using box units in orthogonal box = (0 0 0) to (0.012 0.0024 0.032)
  create_atoms CPU = 0.000 seconds
create_atoms 2 single 2.17823589e-03 2.67750000e-04 6.41319725e-03 units box
Created 1 atoms
  using box units in orthogonal box = (0 0 0) to (0.012 0.0024 0.032)
  create_atoms CPU = 0.000 seconds
create_atoms 2 single 2.07814168e-03 2.67750000e-04 6.44316349e-03 units box
Created 1 atoms
  using box units in orthogonal box = (0 0 0) to (0.012 0.0024 0.032)
  create_atoms CPU = 0.000 seconds
create_atoms 2 single 1.97383483e-03 2.67750000e-04 6.44923867e-03 units box
Created 1 atoms
  using box units in orthogonal box = (0 0 0) to (0.012 0.0024 0.032)
  create_atoms CPU = 0.000 seconds
create_atoms 2 single 1.87093855e-03 2.67750000e-04 6.43109528e-03 units box
Created 1 atoms
  using box units in orthogonal box = (0 0 0) to (0.012 0.0024 0.032)
  create_atoms CPU = 0.000 seconds
create_atoms 2 single 1.77500000e-03 2.67750000e-04 6.38971143e-03 units box
Created 1 atoms
  using box units in orthogonal box = (0 0 0) to (0.012 0.0024 0.032)
  create_atoms CPU = 0.000 seconds
create_atoms 2 single 1.69119126e-03 2.67750000e-04 6.32731814e-03 units box
Created 1 atoms
  using box units in orthogonal box = (0 0 0) to (0.012 0.0024 0.032)
  create_atoms CPU = 0.000 seconds
create_atoms 2 single 1.62403048e-03 2.67750000e-04 6.24727904e-03 units box
Created 1 atoms
  using box units in orthogonal box = (0 0 0) to (0.012 0.0024 0.032)
  create_atoms CPU = 0.000 seconds
create_atoms 2 single 1.57713832e-03 2.67750000e-04 6.15390906e-03 units box
Created 1 atoms
  using box units in orthogonal box = (0 0 0) to (0.012 0.0024 0.032)
  create_atoms CPU = 0.000 seconds
create_atoms 2 single 1.55304274e-03 2.67750000e-04 6.05224181e-03 units box
Created 1 atoms
  using box units in orthogonal box = (0 0 0) to (0.012 0.0024 0.032)
  create_atoms CPU = 0.000 seconds
create_atoms 2 single 1.55304274e-03 2.67750000e-04 5.94775819e-03 units box
Created 1 atoms
  using box units in orthogonal box = (0 0 0) to (0.012 0.0024 0.032)
  create_atoms CPU = 0.000 seconds
create_atoms 2 single 1.57713832e-03 2.67750000e-04 5.84609094e-03 units box
Created 1 atoms
  using box units in orthogonal box = (0 0 0) to (0.012 0.0024 0.032)
  create_atoms CPU = 0.000 seconds
create_atoms 2 single 1.62403048e-03 2.67750000e-04 5.75272096e-03 units box
Created 1 atoms
  using box units in orthogonal box = (0 0 0) to (0.012 0.0024 0.032)
  create_atoms CPU = 0.000 seconds
create_atoms 2 single 1.69119126e-03 2.67750000e-04 5.67268186e-03 units box
Created 1 atoms
  using box units in orthogonal box = (0 0 0) to (0.012 0.0024 0.032)
  create_atoms CPU = 0.000 seconds
create_atoms 2 single 1.77500000e-03 2.67750000e-04 5.61028857e-03 units box
Created 1 atoms
  using box units in orthogonal box = (0 0 0) to (0.012 0.0024 0.032)
  create_atoms CPU = 0.000 seconds
create_atoms 2 single 1.87093855e-03 2.67750000e-04 5.56890472e-03 units box
Created 1 atoms
  using box units in orthogonal box = (0 0 0) to (0.012 0.0024 0.032)
  create_atoms CPU = 0.000 seconds
create_atoms 2 single 1.97383483e-03 2.67750000e-04 5.55076133e-03 units box
Created 1 atoms
  using box units in orthogonal box = (0 0 0) to (0.012 0.0024 0.032)
  create_atoms CPU = 0.000 seconds
create_atoms 2 single 2.07814168e-03 2.67750000e-04 5.55683651e-03 units box
Created 1 atoms
  using box units in orthogonal box = (0 0 0) to (0.012 0.0024 0.032)
  create_atoms CPU = 0.000 seconds
create_atoms 2 single 2.17823589e-03 2.67750000e-04 5.58680275e-03 units box
Created 1 atoms
  using box units in orthogonal box = (0 0 0) to (0.012 0.0024 0.032)
  create_atoms CPU = 0.000 seconds
create_atoms 2 single 2.26872137e-03 2.67750000e-04 5.63904456e-03 units box
Created 1 atoms
  using box units in orthogonal box = (0 0 0) to (0.012 0.0024 0.032)
  create_atoms CPU = 0.000 seconds
create_atoms 2 single 2.34472000e-03 2.67750000e-04 5.71074558e-03 units box
Created 1 atoms
  using box units in orthogonal box = (0 0 0) to (0.012 0.0024 0.032)
  create_atoms CPU = 0.000 seconds
create_atoms 2 single 2.40213469e-03 2.67750000e-04 5.79804037e-03 units box
Created 1 atoms
  using box units in orthogonal box = (0 0 0) to (0.012 0.0024 0.032)
  create_atoms CPU = 0.000 seconds
create_atoms 2 single 2.43787019e-03 2.67750000e-04 5.89622286e-03 units box
Created 1 atoms
  using box units in orthogonal box = (0 0 0) to (0.012 0.0024 0.032)
  create_atoms CPU = 0.000 seconds
create_atoms 2 single 2.45000000e-03 3.72750000e-04 6.00000000e-03 units box
Created 1 atoms
  using box units in orthogonal box = (0 0 0) to (0.012 0.0024 0.032)
  create_atoms CPU = 0.000 seconds
create_atoms 2 single 2.43787019e-03 3.72750000e-04 6.10377714e-03 units box
Created 1 atoms
  using box units in orthogonal box = (0 0 0) to (0.012 0.0024 0.032)
  create_atoms CPU = 0.000 seconds
create_atoms 2 single 2.40213469e-03 3.72750000e-04 6.20195963e-03 units box
Created 1 atoms
  using box units in orthogonal box = (0 0 0) to (0.012 0.0024 0.032)
  create_atoms CPU = 0.000 seconds
create_atoms 2 single 2.34472000e-03 3.72750000e-04 6.28925442e-03 units box
Created 1 atoms
  using box units in orthogonal box = (0 0 0) to (0.012 0.0024 0.032)
  create_atoms CPU = 0.000 seconds
create_atoms 2 single 2.26872137e-03 3.72750000e-04 6.36095544e-03 units box
Created 1 atoms
  using box units in orthogonal box = (0 0 0) to (0.012 0.0024 0.032)
  create_atoms CPU = 0.000 seconds
create_atoms 2 single 2.17823589e-03 3.72750000e-04 6.41319725e-03 units box
Created 1 atoms
  using box units in orthogonal box = (0 0 0) to (0.012 0.0024 0.032)
  create_atoms CPU = 0.000 seconds
create_atoms 2 single 2.07814168e-03 3.72750000e-04 6.44316349e-03 units box
Created 1 atoms
  using box units in orthogonal box = (0 0 0) to (0.012 0.0024 0.032)
  create_atoms CPU = 0.000 seconds
create_atoms 2 single 1.97383483e-03 3.72750000e-04 6.44923867e-03 units box
Created 1 atoms
  using box units in orthogonal box = (0 0 0) to (0.012 0.0024 0.032)
  create_atoms CPU = 0.000 seconds
create_atoms 2 single 1.87093855e-03 3.72750000e-04 6.43109528e-03 units box
Created 1 atoms
  using box units in orthogonal box = (0 0 0) to (0.012 0.0024 0.032)
  create_atoms CPU = 0.000 seconds
create_atoms 2 single 1.77500000e-03 3.72750000e-04 6.38971143e-03 units box
Created 1 atoms
  using box units in orthogonal box = (0 0 0) to (0.012 0.0024 0.032)
  create_atoms CPU = 0.000 seconds
create_atoms 2 single 1.69119126e-03 3.72750000e-04 6.32731814e-03 units box
Created 1 atoms
  using box units in orthogonal box = (0 0 0) to (0.012 0.0024 0.032)
  create_atoms CPU = 0.000 seconds
create_atoms 2 single 1.62403048e-03 3.72750000e-04 6.24727904e-03 units box
Created 1 atoms
  using box units in orthogonal box = (0 0 0) to (0.012 0.0024 0.032)
  create_atoms CPU = 0.000 seconds
create_atoms 2 single 1.57713832e-03 3.72750000e-04 6.15390906e-03 units box
Created 1 atoms
  using box units in orthogonal box = (0 0 0) to (0.012 0.0024 0.032)
  create_atoms CPU = 0.000 seconds
create_atoms 2 single 1.55304274e-03 3.72750000e-04 6.05224181e-03 units box
Created 1 atoms
  using box units in orthogonal box = (0 0 0) to (0.012 0.0024 0.032)
  create_atoms CPU = 0.000 seconds
create_atoms 2 single 1.55304274e-03 3.72750000e-04 5.94775819e-03 units box
Created 1 atoms
  using box units in orthogonal box = (0 0 0) to (0.012 0.0024 0.032)
  create_atoms CPU = 0.000 seconds
create_atoms 2 single 1.57713832e-03 3.72750000e-04 5.84609094e-03 units box
Created 1 atoms
  using box units in orthogonal box = (0 0 0) to (0.012 0.0024 0.032)
  create_atoms CPU = 0.000 seconds
create_atoms 2 single 1.62403048e-03 3.72750000e-04 5.75272096e-03 units box
Created 1 atoms
  using box units in orthogonal box = (0 0 0) to (0.012 0.0024 0.032)
  create_atoms CPU = 0.000 seconds
create_atoms 2 single 1.69119126e-03 3.72750000e-04 5.67268186e-03 units box
Created 1 atoms
  using box units in orthogonal box = (0 0 0) to (0.012 0.0024 0.032)
  create_atoms CPU = 0.000 seconds
create_atoms 2 single 1.77500000e-03 3.72750000e-04 5.61028857e-03 units box
Created 1 atoms
  using box units in orthogonal box = (0 0 0) to (0.012 0.0024 0.032)
  create_atoms CPU = 0.000 seconds
create_atoms 2 single 1.87093855e-03 3.72750000e-04 5.56890472e-03 units box
Created 1 atoms
  using box units in orthogonal box = (0 0 0) to (0.012 0.0024 0.032)
  create_atoms CPU = 0.000 seconds
create_atoms 2 single 1.97383483e-03 3.72750000e-04 5.55076133e-03 units box
Created 1 atoms
  using box units in orthogonal box = (0 0 0) to (0.012 0.0024 0.032)
  create_atoms CPU = 0.000 seconds
create_atoms 2 single 2.07814168e-03 3.72750000e-04 5.55683651e-03 units box
Created 1 atoms
  using box units in orthogonal box = (0 0 0) to (0.012 0.0024 0.032)
  create_atoms CPU = 0.000 seconds
create_atoms 2 single 2.17823589e-03 3.72750000e-04 5.58680275e-03 units box
Created 1 atoms
  using box units in orthogonal box = (0 0 0) to (0.012 0.0024 0.032)
  create_atoms CPU = 0.000 seconds
create_atoms 2 single 2.26872137e-03 3.72750000e-04 5.63904456e-03 units box
Created 1 atoms
  using box units in orthogonal box = (0 0 0) to (0.012 0.0024 0.032)
  create_atoms CPU = 0.000 seconds
create_atoms 2 single 2.34472000e-03 3.72750000e-04 5.71074558e-03 units box
Created 1 atoms
  using box units in orthogonal box = (0 0 0) to (0.012 0.0024 0.032)
  create_atoms CPU = 0.000 seconds
create_atoms 2 single 2.40213469e-03 3.72750000e-04 5.79804037e-03 units box
Created 1 atoms
  using box units in orthogonal box = (0 0 0) to (0.012 0.0024 0.032)
  create_atoms CPU = 0.000 seconds
create_atoms 2 single 2.43787019e-03 3.72750000e-04 5.89622286e-03 units box
Created 1 atoms
  using box units in orthogonal box = (0 0 0) to (0.012 0.0024 0.032)
  create_atoms CPU = 0.000 seconds
create_atoms 2 single 2.45000000e-03 4.77750000e-04 6.00000000e-03 units box
Created 1 atoms
  using box units in orthogonal box = (0 0 0) to (0.012 0.0024 0.032)
  create_atoms CPU = 0.000 seconds
create_atoms 2 single 2.43787019e-03 4.77750000e-04 6.10377714e-03 units box
Created 1 atoms
  using box units in orthogonal box = (0 0 0) to (0.012 0.0024 0.032)
  create_atoms CPU = 0.000 seconds
create_atoms 2 single 2.40213469e-03 4.77750000e-04 6.20195963e-03 units box
Created 1 atoms
  using box units in orthogonal box = (0 0 0) to (0.012 0.0024 0.032)
  create_atoms CPU = 0.000 seconds
create_atoms 2 single 2.34472000e-03 4.77750000e-04 6.28925442e-03 units box
Created 1 atoms
  using box units in orthogonal box = (0 0 0) to (0.012 0.0024 0.032)
  create_atoms CPU = 0.000 seconds
create_atoms 2 single 2.26872137e-03 4.77750000e-04 6.36095544e-03 units box
Created 1 atoms
  using box units in orthogonal box = (0 0 0) to (0.012 0.0024 0.032)
  create_atoms CPU = 0.000 seconds
create_atoms 2 single 2.17823589e-03 4.77750000e-04 6.41319725e-03 units box
Created 1 atoms
  using box units in orthogonal box = (0 0 0) to (0.012 0.0024 0.032)
  create_atoms CPU = 0.000 seconds
create_atoms 2 single 2.07814168e-03 4.77750000e-04 6.44316349e-03 units box
Created 1 atoms
  using box units in orthogonal box = (0 0 0) to (0.012 0.0024 0.032)
  create_atoms CPU = 0.000 seconds
create_atoms 2 single 1.97383483e-03 4.77750000e-04 6.44923867e-03 units box
Created 1 atoms
  using box units in orthogonal box = (0 0 0) to (0.012 0.0024 0.032)
  create_atoms CPU = 0.000 seconds
create_atoms 2 single 1.87093855e-03 4.77750000e-04 6.43109528e-03 units box
Created 1 atoms
  using box units in orthogonal box = (0 0 0) to (0.012 0.0024 0.032)
  create_atoms CPU = 0.000 seconds
create_atoms 2 single 1.77500000e-03 4.77750000e-04 6.38971143e-03 units box
Created 1 atoms
  using box units in orthogonal box = (0 0 0) to (0.012 0.0024 0.032)
  create_atoms CPU = 0.000 seconds
create_atoms 2 single 1.69119126e-03 4.77750000e-04 6.32731814e-03 units box
Created 1 atoms
  using box units in orthogonal box = (0 0 0) to (0.012 0.0024 0.032)
  create_atoms CPU = 0.000 seconds
create_atoms 2 single 1.62403048e-03 4.77750000e-04 6.24727904e-03 units box
Created 1 atoms
  using box units in orthogonal box = (0 0 0) to (0.012 0.0024 0.032)
  create_atoms CPU = 0.000 seconds
create_atoms 2 single 1.57713832e-03 4.77750000e-04 6.15390906e-03 units box
Created 1 atoms
  using box units in orthogonal box = (0 0 0) to (0.012 0.0024 0.032)
  create_atoms CPU = 0.000 seconds
create_atoms 2 single 1.55304274e-03 4.77750000e-04 6.05224181e-03 units box
Created 1 atoms
  using box units in orthogonal box = (0 0 0) to (0.012 0.0024 0.032)
  create_atoms CPU = 0.000 seconds
create_atoms 2 single 1.55304274e-03 4.77750000e-04 5.94775819e-03 units box
Created 1 atoms
  using box units in orthogonal box = (0 0 0) to (0.012 0.0024 0.032)
  create_atoms CPU = 0.000 seconds
create_atoms 2 single 1.57713832e-03 4.77750000e-04 5.84609094e-03 units box
Created 1 atoms
  using box units in orthogonal box = (0 0 0) to (0.012 0.0024 0.032)
  create_atoms CPU = 0.000 seconds
create_atoms 2 single 1.62403048e-03 4.77750000e-04 5.75272096e-03 units box
Created 1 atoms
  using box units in orthogonal box = (0 0 0) to (0.012 0.0024 0.032)
  create_atoms CPU = 0.000 seconds
create_atoms 2 single 1.69119126e-03 4.77750000e-04 5.67268186e-03 units box
Created 1 atoms
  using box units in orthogonal box = (0 0 0) to (0.012 0.0024 0.032)
  create_atoms CPU = 0.000 seconds
create_atoms 2 single 1.77500000e-03 4.77750000e-04 5.61028857e-03 units box
Created 1 atoms
  using box units in orthogonal box = (0 0 0) to (0.012 0.0024 0.032)
  create_atoms CPU = 0.000 seconds
create_atoms 2 single 1.87093855e-03 4.77750000e-04 5.56890472e-03 units box
Created 1 atoms
  using box units in orthogonal box = (0 0 0) to (0.012 0.0024 0.032)
  create_atoms CPU = 0.000 seconds
create_atoms 2 single 1.97383483e-03 4.77750000e-04 5.55076133e-03 units box
Created 1 atoms
  using box units in orthogonal box = (0 0 0) to (0.012 0.0024 0.032)
  create_atoms CPU = 0.000 seconds
create_atoms 2 single 2.07814168e-03 4.77750000e-04 5.55683651e-03 units box
Created 1 atoms
  using box units in orthogonal box = (0 0 0) to (0.012 0.0024 0.032)
  create_atoms CPU = 0.000 seconds
create_atoms 2 single 2.17823589e-03 4.77750000e-04 5.58680275e-03 units box
Created 1 atoms
  using box units in orthogonal box = (0 0 0) to (0.012 0.0024 0.032)
  create_atoms CPU = 0.000 seconds
create_atoms 2 single 2.26872137e-03 4.77750000e-04 5.63904456e-03 units box
Created 1 atoms
  using box units in orthogonal box = (0 0 0) to (0.012 0.0024 0.032)
  create_atoms CPU = 0.000 seconds
create_atoms 2 single 2.34472000e-03 4.77750000e-04 5.71074558e-03 units box
Created 1 atoms
  using box units in orthogonal box = (0 0 0) to (0.012 0.0024 0.032)
  create_atoms CPU = 0.000 seconds
create_atoms 2 single 2.40213469e-03 4.77750000e-04 5.79804037e-03 units box
Created 1 atoms
  using box units in orthogonal box = (0 0 0) to (0.012 0.0024 0.032)
  create_atoms CPU = 0.000 seconds
create_atoms 2 single 2.43787019e-03 4.77750000e-04 5.89622286e-03 units box
Created 1 atoms
  using box units in orthogonal box = (0 0 0) to (0.012 0.0024 0.032)
  create_atoms CPU = 0.000 seconds
create_atoms 2 single 2.45000000e-03 5.82750000e-04 6.00000000e-03 units box
Created 1 atoms
  using box units in orthogonal box = (0 0 0) to (0.012 0.0024 0.032)
  create_atoms CPU = 0.000 seconds
create_atoms 2 single 2.43787019e-03 5.82750000e-04 6.10377714e-03 units box
Created 1 atoms
  using box units in orthogonal box = (0 0 0) to (0.012 0.0024 0.032)
  create_atoms CPU = 0.000 seconds
create_atoms 2 single 2.40213469e-03 5.82750000e-04 6.20195963e-03 units box
Created 1 atoms
  using box units in orthogonal box = (0 0 0) to (0.012 0.0024 0.032)
  create_atoms CPU = 0.000 seconds
create_atoms 2 single 2.34472000e-03 5.82750000e-04 6.28925442e-03 units box
Created 1 atoms
  using box units in orthogonal box = (0 0 0) to (0.012 0.0024 0.032)
  create_atoms CPU = 0.000 seconds
create_atoms 2 single 2.26872137e-03 5.82750000e-04 6.36095544e-03 units box
Created 1 atoms
  using box units in orthogonal box = (0 0 0) to (0.012 0.0024 0.032)
  create_atoms CPU = 0.000 seconds
create_atoms 2 single 2.17823589e-03 5.82750000e-04 6.41319725e-03 units box
Created 1 atoms
  using box units in orthogonal box = (0 0 0) to (0.012 0.0024 0.032)
  create_atoms CPU = 0.000 seconds
create_atoms 2 single 2.07814168e-03 5.82750000e-04 6.44316349e-03 units box
Created 1 atoms
  using box units in orthogonal box = (0 0 0) to (0.012 0.0024 0.032)
  create_atoms CPU = 0.000 seconds
create_atoms 2 single 1.97383483e-03 5.82750000e-04 6.44923867e-03 units box
Created 1 atoms
  using box units in orthogonal box = (0 0 0) to (0.012 0.0024 0.032)
  create_atoms CPU = 0.000 seconds
create_atoms 2 single 1.87093855e-03 5.82750000e-04 6.43109528e-03 units box
Created 1 atoms
  using box units in orthogonal box = (0 0 0) to (0.012 0.0024 0.032)
  create_atoms CPU = 0.000 seconds
create_atoms 2 single 1.77500000e-03 5.82750000e-04 6.38971143e-03 units box
Created 1 atoms
  using box units in orthogonal box = (0 0 0) to (0.012 0.0024 0.032)
  create_atoms CPU = 0.000 seconds
create_atoms 2 single 1.69119126e-03 5.82750000e-04 6.32731814e-03 units box
Created 1 atoms
  using box units in orthogonal box = (0 0 0) to (0.012 0.0024 0.032)
  create_atoms CPU = 0.000 seconds
create_atoms 2 single 1.62403048e-03 5.82750000e-04 6.24727904e-03 units box
Created 1 atoms
  using box units in orthogonal box = (0 0 0) to (0.012 0.0024 0.032)
  create_atoms CPU = 0.000 seconds
create_atoms 2 single 1.57713832e-03 5.82750000e-04 6.15390906e-03 units box
Created 1 atoms
  using box units in orthogonal box = (0 0 0) to (0.012 0.0024 0.032)
  create_atoms CPU = 0.000 seconds
create_atoms 2 single 1.55304274e-03 5.82750000e-04 6.05224181e-03 units box
Created 1 atoms
  using box units in orthogonal box = (0 0 0) to (0.012 0.0024 0.032)
  create_atoms CPU = 0.000 seconds
create_atoms 2 single 1.55304274e-03 5.82750000e-04 5.94775819e-03 units box
Created 1 atoms
  using box units in orthogonal box = (0 0 0) to (0.012 0.0024 0.032)
  create_atoms CPU = 0.000 seconds
create_atoms 2 single 1.57713832e-03 5.82750000e-04 5.84609094e-03 units box
Created 1 atoms
  using box units in orthogonal box = (0 0 0) to (0.012 0.0024 0.032)
  create_atoms CPU = 0.000 seconds
create_atoms 2 single 1.62403048e-03 5.82750000e-04 5.75272096e-03 units box
Created 1 atoms
  using box units in orthogonal box = (0 0 0) to (0.012 0.0024 0.032)
  create_atoms CPU = 0.000 seconds
create_atoms 2 single 1.69119126e-03 5.82750000e-04 5.67268186e-03 units box
Created 1 atoms
  using box units in orthogonal box = (0 0 0) to (0.012 0.0024 0.032)
  create_atoms CPU = 0.000 seconds
create_atoms 2 single 1.77500000e-03 5.82750000e-04 5.61028857e-03 units box
Created 1 atoms
  using box units in orthogonal box = (0 0 0) to (0.012 0.0024 0.032)
  create_atoms CPU = 0.000 seconds
create_atoms 2 single 1.87093855e-03 5.82750000e-04 5.56890472e-03 units box
Created 1 atoms
  using box units in orthogonal box = (0 0 0) to (0.012 0.0024 0.032)
  create_atoms CPU = 0.000 seconds
create_atoms 2 single 1.97383483e-03 5.82750000e-04 5.55076133e-03 units box
Created 1 atoms
  using box units in orthogonal box = (0 0 0) to (0.012 0.0024 0.032)
  create_atoms CPU = 0.000 seconds
create_atoms 2 single 2.07814168e-03 5.82750000e-04 5.55683651e-03 units box
Created 1 atoms
  using box units in orthogonal box = (0 0 0) to (0.012 0.0024 0.032)
  create_atoms CPU = 0.000 seconds
create_atoms 2 single 2.17823589e-03 5.82750000e-04 5.58680275e-03 units box
Created 1 atoms
  using box units in orthogonal box = (0 0 0) to (0.012 0.0024 0.032)
  create_atoms CPU = 0.000 seconds
create_atoms 2 single 2.26872137e-03 5.82750000e-04 5.63904456e-03 units box
Created 1 atoms
  using box units in orthogonal box = (0 0 0) to (0.012 0.0024 0.032)
  create_atoms CPU = 0.000 seconds
create_atoms 2 single 2.34472000e-03 5.82750000e-04 5.71074558e-03 units box
Created 1 atoms
  using box units in orthogonal box = (0 0 0) to (0.012 0.0024 0.032)
  create_atoms CPU = 0.000 seconds
create_atoms 2 single 2.40213469e-03 5.82750000e-04 5.79804037e-03 units box
Created 1 atoms
  using box units in orthogonal box = (0 0 0) to (0.012 0.0024 0.032)
  create_atoms CPU = 0.000 seconds
create_atoms 2 single 2.43787019e-03 5.82750000e-04 5.89622286e-03 units box
Created 1 atoms
  using box units in orthogonal box = (0 0 0) to (0.012 0.0024 0.032)
  create_atoms CPU = 0.000 seconds
create_atoms 2 single 2.45000000e-03 6.87750000e-04 6.00000000e-03 units box
Created 1 atoms
  using box units in orthogonal box = (0 0 0) to (0.012 0.0024 0.032)
  create_atoms CPU = 0.000 seconds
create_atoms 2 single 2.43787019e-03 6.87750000e-04 6.10377714e-03 units box
Created 1 atoms
  using box units in orthogonal box = (0 0 0) to (0.012 0.0024 0.032)
  create_atoms CPU = 0.000 seconds
create_atoms 2 single 2.40213469e-03 6.87750000e-04 6.20195963e-03 units box
Created 1 atoms
  using box units in orthogonal box = (0 0 0) to (0.012 0.0024 0.032)
  create_atoms CPU = 0.000 seconds
create_atoms 2 single 2.34472000e-03 6.87750000e-04 6.28925442e-03 units box
Created 1 atoms
  using box units in orthogonal box = (0 0 0) to (0.012 0.0024 0.032)
  create_atoms CPU = 0.000 seconds
create_atoms 2 single 2.26872137e-03 6.87750000e-04 6.36095544e-03 units box
Created 1 atoms
  using box units in orthogonal box = (0 0 0) to (0.012 0.0024 0.032)
  create_atoms CPU = 0.000 seconds
create_atoms 2 single 2.17823589e-03 6.87750000e-04 6.41319725e-03 units box
Created 1 atoms
  using box units in orthogonal box = (0 0 0) to (0.012 0.0024 0.032)
  create_atoms CPU = 0.000 seconds
create_atoms 2 single 2.07814168e-03 6.87750000e-04 6.44316349e-03 units box
Created 1 atoms
  using box units in orthogonal box = (0 0 0) to (0.012 0.0024 0.032)
  create_atoms CPU = 0.000 seconds
create_atoms 2 single 1.97383483e-03 6.87750000e-04 6.44923867e-03 units box
Created 1 atoms
  using box units in orthogonal box = (0 0 0) to (0.012 0.0024 0.032)
  create_atoms CPU = 0.000 seconds
create_atoms 2 single 1.87093855e-03 6.87750000e-04 6.43109528e-03 units box
Created 1 atoms
  using box units in orthogonal box = (0 0 0) to (0.012 0.0024 0.032)
  create_atoms CPU = 0.000 seconds
create_atoms 2 single 1.77500000e-03 6.87750000e-04 6.38971143e-03 units box
Created 1 atoms
  using box units in orthogonal box = (0 0 0) to (0.012 0.0024 0.032)
  create_atoms CPU = 0.000 seconds
create_atoms 2 single 1.69119126e-03 6.87750000e-04 6.32731814e-03 units box
Created 1 atoms
  using box units in orthogonal box = (0 0 0) to (0.012 0.0024 0.032)
  create_atoms CPU = 0.000 seconds
create_atoms 2 single 1.62403048e-03 6.87750000e-04 6.24727904e-03 units box
Created 1 atoms
  using box units in orthogonal box = (0 0 0) to (0.012 0.0024 0.032)
  create_atoms CPU = 0.000 seconds
create_atoms 2 single 1.57713832e-03 6.87750000e-04 6.15390906e-03 units box
Created 1 atoms
  using box units in orthogonal box = (0 0 0) to (0.012 0.0024 0.032)
  create_atoms CPU = 0.000 seconds
create_atoms 2 single 1.55304274e-03 6.87750000e-04 6.05224181e-03 units box
Created 1 atoms
  using box units in orthogonal box = (0 0 0) to (0.012 0.0024 0.032)
  create_atoms CPU = 0.000 seconds
create_atoms 2 single 1.55304274e-03 6.87750000e-04 5.94775819e-03 units box
Created 1 atoms
  using box units in orthogonal box = (0 0 0) to (0.012 0.0024 0.032)
  create_atoms CPU = 0.000 seconds
create_atoms 2 single 1.57713832e-03 6.87750000e-04 5.84609094e-03 units box
Created 1 atoms
  using box units in orthogonal box = (0 0 0) to (0.012 0.0024 0.032)
  create_atoms CPU = 0.000 seconds
create_atoms 2 single 1.62403048e-03 6.87750000e-04 5.75272096e-03 units box
Created 1 atoms
  using box units in orthogonal box = (0 0 0) to (0.012 0.0024 0.032)
  create_atoms CPU = 0.000 seconds
create_atoms 2 single 1.69119126e-03 6.87750000e-04 5.67268186e-03 units box
Created 1 atoms
  using box units in orthogonal box = (0 0 0) to (0.012 0.0024 0.032)
  create_atoms CPU = 0.000 seconds
create_atoms 2 single 1.77500000e-03 6.87750000e-04 5.61028857e-03 units box
Created 1 atoms
  using box units in orthogonal box = (0 0 0) to (0.012 0.0024 0.032)
  create_atoms CPU = 0.000 seconds
create_atoms 2 single 1.87093855e-03 6.87750000e-04 5.56890472e-03 units box
Created 1 atoms
  using box units in orthogonal box = (0 0 0) to (0.012 0.0024 0.032)
  create_atoms CPU = 0.000 seconds
create_atoms 2 single 1.97383483e-03 6.87750000e-04 5.55076133e-03 units box
Created 1 atoms
  using box units in orthogonal box = (0 0 0) to (0.012 0.0024 0.032)
  create_atoms CPU = 0.000 seconds
create_atoms 2 single 2.07814168e-03 6.87750000e-04 5.55683651e-03 units box
Created 1 atoms
  using box units in orthogonal box = (0 0 0) to (0.012 0.0024 0.032)
  create_atoms CPU = 0.000 seconds
create_atoms 2 single 2.17823589e-03 6.87750000e-04 5.58680275e-03 units box
Created 1 atoms
  using box units in orthogonal box = (0 0 0) to (0.012 0.0024 0.032)
  create_atoms CPU = 0.000 seconds
create_atoms 2 single 2.26872137e-03 6.87750000e-04 5.63904456e-03 units box
Created 1 atoms
  using box units in orthogonal box = (0 0 0) to (0.012 0.0024 0.032)
  create_atoms CPU = 0.000 seconds
create_atoms 2 single 2.34472000e-03 6.87750000e-04 5.71074558e-03 units box
Created 1 atoms
  using box units in orthogonal box = (0 0 0) to (0.012 0.0024 0.032)
  create_atoms CPU = 0.000 seconds
create_atoms 2 single 2.40213469e-03 6.87750000e-04 5.79804037e-03 units box
Created 1 atoms
  using box units in orthogonal box = (0 0 0) to (0.012 0.0024 0.032)
  create_atoms CPU = 0.000 seconds
create_atoms 2 single 2.43787019e-03 6.87750000e-04 5.89622286e-03 units box
Created 1 atoms
  using box units in orthogonal box = (0 0 0) to (0.012 0.0024 0.032)
  create_atoms CPU = 0.000 seconds
create_atoms 2 single 2.45000000e-03 7.92750000e-04 6.00000000e-03 units box
Created 1 atoms
  using box units in orthogonal box = (0 0 0) to (0.012 0.0024 0.032)
  create_atoms CPU = 0.000 seconds
create_atoms 2 single 2.43787019e-03 7.92750000e-04 6.10377714e-03 units box
Created 1 atoms
  using box units in orthogonal box = (0 0 0) to (0.012 0.0024 0.032)
  create_atoms CPU = 0.000 seconds
create_atoms 2 single 2.40213469e-03 7.92750000e-04 6.20195963e-03 units box
Created 1 atoms
  using box units in orthogonal box = (0 0 0) to (0.012 0.0024 0.032)
  create_atoms CPU = 0.000 seconds
create_atoms 2 single 2.34472000e-03 7.92750000e-04 6.28925442e-03 units box
Created 1 atoms
  using box units in orthogonal box = (0 0 0) to (0.012 0.0024 0.032)
  create_atoms CPU = 0.000 seconds
create_atoms 2 single 2.26872137e-03 7.92750000e-04 6.36095544e-03 units box
Created 1 atoms
  using box units in orthogonal box = (0 0 0) to (0.012 0.0024 0.032)
  create_atoms CPU = 0.000 seconds
create_atoms 2 single 2.17823589e-03 7.92750000e-04 6.41319725e-03 units box
Created 1 atoms
  using box units in orthogonal box = (0 0 0) to (0.012 0.0024 0.032)
  create_atoms CPU = 0.000 seconds
create_atoms 2 single 2.07814168e-03 7.92750000e-04 6.44316349e-03 units box
Created 1 atoms
  using box units in orthogonal box = (0 0 0) to (0.012 0.0024 0.032)
  create_atoms CPU = 0.000 seconds
create_atoms 2 single 1.97383483e-03 7.92750000e-04 6.44923867e-03 units box
Created 1 atoms
  using box units in orthogonal box = (0 0 0) to (0.012 0.0024 0.032)
  create_atoms CPU = 0.000 seconds
create_atoms 2 single 1.87093855e-03 7.92750000e-04 6.43109528e-03 units box
Created 1 atoms
  using box units in orthogonal box = (0 0 0) to (0.012 0.0024 0.032)
  create_atoms CPU = 0.000 seconds
create_atoms 2 single 1.77500000e-03 7.92750000e-04 6.38971143e-03 units box
Created 1 atoms
  using box units in orthogonal box = (0 0 0) to (0.012 0.0024 0.032)
  create_atoms CPU = 0.000 seconds
create_atoms 2 single 1.69119126e-03 7.92750000e-04 6.32731814e-03 units box
Created 1 atoms
  using box units in orthogonal box = (0 0 0) to (0.012 0.0024 0.032)
  create_atoms CPU = 0.000 seconds
create_atoms 2 single 1.62403048e-03 7.92750000e-04 6.24727904e-03 units box
Created 1 atoms
  using box units in orthogonal box = (0 0 0) to (0.012 0.0024 0.032)
  create_atoms CPU = 0.000 seconds
create_atoms 2 single 1.57713832e-03 7.92750000e-04 6.15390906e-03 units box
Created 1 atoms
  using box units in orthogonal box = (0 0 0) to (0.012 0.0024 0.032)
  create_atoms CPU = 0.000 seconds
create_atoms 2 single 1.55304274e-03 7.92750000e-04 6.05224181e-03 units box
Created 1 atoms
  using box units in orthogonal box = (0 0 0) to (0.012 0.0024 0.032)
  create_atoms CPU = 0.000 seconds
create_atoms 2 single 1.55304274e-03 7.92750000e-04 5.94775819e-03 units box
Created 1 atoms
  using box units in orthogonal box = (0 0 0) to (0.012 0.0024 0.032)
  create_atoms CPU = 0.000 seconds
create_atoms 2 single 1.57713832e-03 7.92750000e-04 5.84609094e-03 units box
Created 1 atoms
  using box units in orthogonal box = (0 0 0) to (0.012 0.0024 0.032)
  create_atoms CPU = 0.000 seconds
create_atoms 2 single 1.62403048e-03 7.92750000e-04 5.75272096e-03 units box
Created 1 atoms
  using box units in orthogonal box = (0 0 0) to (0.012 0.0024 0.032)
  create_atoms CPU = 0.000 seconds
create_atoms 2 single 1.69119126e-03 7.92750000e-04 5.67268186e-03 units box
Created 1 atoms
  using box units in orthogonal box = (0 0 0) to (0.012 0.0024 0.032)
  create_atoms CPU = 0.000 seconds
create_atoms 2 single 1.77500000e-03 7.92750000e-04 5.61028857e-03 units box
Created 1 atoms
  using box units in orthogonal box = (0 0 0) to (0.012 0.0024 0.032)
  create_atoms CPU = 0.000 seconds
create_atoms 2 single 1.87093855e-03 7.92750000e-04 5.56890472e-03 units box
Created 1 atoms
  using box units in orthogonal box = (0 0 0) to (0.012 0.0024 0.032)
  create_atoms CPU = 0.000 seconds
create_atoms 2 single 1.97383483e-03 7.92750000e-04 5.55076133e-03 units box
Created 1 atoms
  using box units in orthogonal box = (0 0 0) to (0.012 0.0024 0.032)
  create_atoms CPU = 0.000 seconds
create_atoms 2 single 2.07814168e-03 7.92750000e-04 5.55683651e-03 units box
Created 1 atoms
  using box units in orthogonal box = (0 0 0) to (0.012 0.0024 0.032)
  create_atoms CPU = 0.000 seconds
create_atoms 2 single 2.17823589e-03 7.92750000e-04 5.58680275e-03 units box
Created 1 atoms
  using box units in orthogonal box = (0 0 0) to (0.012 0.0024 0.032)
  create_atoms CPU = 0.000 seconds
create_atoms 2 single 2.26872137e-03 7.92750000e-04 5.63904456e-03 units box
Created 1 atoms
  using box units in orthogonal box = (0 0 0) to (0.012 0.0024 0.032)
  create_atoms CPU = 0.000 seconds
create_atoms 2 single 2.34472000e-03 7.92750000e-04 5.71074558e-03 units box
Created 1 atoms
  using box units in orthogonal box = (0 0 0) to (0.012 0.0024 0.032)
  create_atoms CPU = 0.000 seconds
create_atoms 2 single 2.40213469e-03 7.92750000e-04 5.79804037e-03 units box
Created 1 atoms
  using box units in orthogonal box = (0 0 0) to (0.012 0.0024 0.032)
  create_atoms CPU = 0.000 seconds
create_atoms 2 single 2.43787019e-03 7.92750000e-04 5.89622286e-03 units box
Created 1 atoms
  using box units in orthogonal box = (0 0 0) to (0.012 0.0024 0.032)
  create_atoms CPU = 0.000 seconds
create_atoms 2 single 2.45000000e-03 8.97750000e-04 6.00000000e-03 units box
Created 1 atoms
  using box units in orthogonal box = (0 0 0) to (0.012 0.0024 0.032)
  create_atoms CPU = 0.000 seconds
create_atoms 2 single 2.43787019e-03 8.97750000e-04 6.10377714e-03 units box
Created 1 atoms
  using box units in orthogonal box = (0 0 0) to (0.012 0.0024 0.032)
  create_atoms CPU = 0.000 seconds
create_atoms 2 single 2.40213469e-03 8.97750000e-04 6.20195963e-03 units box
Created 1 atoms
  using box units in orthogonal box = (0 0 0) to (0.012 0.0024 0.032)
  create_atoms CPU = 0.000 seconds
create_atoms 2 single 2.34472000e-03 8.97750000e-04 6.28925442e-03 units box
Created 1 atoms
  using box units in orthogonal box = (0 0 0) to (0.012 0.0024 0.032)
  create_atoms CPU = 0.000 seconds
create_atoms 2 single 2.26872137e-03 8.97750000e-04 6.36095544e-03 units box
Created 1 atoms
  using box units in orthogonal box = (0 0 0) to (0.012 0.0024 0.032)
  create_atoms CPU = 0.000 seconds
create_atoms 2 single 2.17823589e-03 8.97750000e-04 6.41319725e-03 units box
Created 1 atoms
  using box units in orthogonal box = (0 0 0) to (0.012 0.0024 0.032)
  create_atoms CPU = 0.000 seconds
create_atoms 2 single 2.07814168e-03 8.97750000e-04 6.44316349e-03 units box
Created 1 atoms
  using box units in orthogonal box = (0 0 0) to (0.012 0.0024 0.032)
  create_atoms CPU = 0.000 seconds
create_atoms 2 single 1.97383483e-03 8.97750000e-04 6.44923867e-03 units box
Created 1 atoms
  using box units in orthogonal box = (0 0 0) to (0.012 0.0024 0.032)
  create_atoms CPU = 0.000 seconds
create_atoms 2 single 1.87093855e-03 8.97750000e-04 6.43109528e-03 units box
Created 1 atoms
  using box units in orthogonal box = (0 0 0) to (0.012 0.0024 0.032)
  create_atoms CPU = 0.000 seconds
create_atoms 2 single 1.77500000e-03 8.97750000e-04 6.38971143e-03 units box
Created 1 atoms
  using box units in orthogonal box = (0 0 0) to (0.012 0.0024 0.032)
  create_atoms CPU = 0.000 seconds
create_atoms 2 single 1.69119126e-03 8.97750000e-04 6.32731814e-03 units box
Created 1 atoms
  using box units in orthogonal box = (0 0 0) to (0.012 0.0024 0.032)
  create_atoms CPU = 0.000 seconds
create_atoms 2 single 1.62403048e-03 8.97750000e-04 6.24727904e-03 units box
Created 1 atoms
  using box units in orthogonal box = (0 0 0) to (0.012 0.0024 0.032)
  create_atoms CPU = 0.000 seconds
create_atoms 2 single 1.57713832e-03 8.97750000e-04 6.15390906e-03 units box
Created 1 atoms
  using box units in orthogonal box = (0 0 0) to (0.012 0.0024 0.032)
  create_atoms CPU = 0.000 seconds
create_atoms 2 single 1.55304274e-03 8.97750000e-04 6.05224181e-03 units box
Created 1 atoms
  using box units in orthogonal box = (0 0 0) to (0.012 0.0024 0.032)
  create_atoms CPU = 0.000 seconds
create_atoms 2 single 1.55304274e-03 8.97750000e-04 5.94775819e-03 units box
Created 1 atoms
  using box units in orthogonal box = (0 0 0) to (0.012 0.0024 0.032)
  create_atoms CPU = 0.000 seconds
create_atoms 2 single 1.57713832e-03 8.97750000e-04 5.84609094e-03 units box
Created 1 atoms
  using box units in orthogonal box = (0 0 0) to (0.012 0.0024 0.032)
  create_atoms CPU = 0.000 seconds
create_atoms 2 single 1.62403048e-03 8.97750000e-04 5.75272096e-03 units box
Created 1 atoms
  using box units in orthogonal box = (0 0 0) to (0.012 0.0024 0.032)
  create_atoms CPU = 0.000 seconds
create_atoms 2 single 1.69119126e-03 8.97750000e-04 5.67268186e-03 units box
Created 1 atoms
  using box units in orthogonal box = (0 0 0) to (0.012 0.0024 0.032)
  create_atoms CPU = 0.000 seconds
create_atoms 2 single 1.77500000e-03 8.97750000e-04 5.61028857e-03 units box
Created 1 atoms
  using box units in orthogonal box = (0 0 0) to (0.012 0.0024 0.032)
  create_atoms CPU = 0.000 seconds
create_atoms 2 single 1.87093855e-03 8.97750000e-04 5.56890472e-03 units box
Created 1 atoms
  using box units in orthogonal box = (0 0 0) to (0.012 0.0024 0.032)
  create_atoms CPU = 0.000 seconds
create_atoms 2 single 1.97383483e-03 8.97750000e-04 5.55076133e-03 units box
Created 1 atoms
  using box units in orthogonal box = (0 0 0) to (0.012 0.0024 0.032)
  create_atoms CPU = 0.000 seconds
create_atoms 2 single 2.07814168e-03 8.97750000e-04 5.55683651e-03 units box
Created 1 atoms
  using box units in orthogonal box = (0 0 0) to (0.012 0.0024 0.032)
  create_atoms CPU = 0.000 seconds
create_atoms 2 single 2.17823589e-03 8.97750000e-04 5.58680275e-03 units box
Created 1 atoms
  using box units in orthogonal box = (0 0 0) to (0.012 0.0024 0.032)
  create_atoms CPU = 0.000 seconds
create_atoms 2 single 2.26872137e-03 8.97750000e-04 5.63904456e-03 units box
Created 1 atoms
  using box units in orthogonal box = (0 0 0) to (0.012 0.0024 0.032)
  create_atoms CPU = 0.000 seconds
create_atoms 2 single 2.34472000e-03 8.97750000e-04 5.71074558e-03 units box
Created 1 atoms
  using box units in orthogonal box = (0 0 0) to (0.012 0.0024 0.032)
  create_atoms CPU = 0.000 seconds
create_atoms 2 single 2.40213469e-03 8.97750000e-04 5.79804037e-03 units box
Created 1 atoms
  using box units in orthogonal box = (0 0 0) to (0.012 0.0024 0.032)
  create_atoms CPU = 0.000 seconds
create_atoms 2 single 2.43787019e-03 8.97750000e-04 5.89622286e-03 units box
Created 1 atoms
  using box units in orthogonal box = (0 0 0) to (0.012 0.0024 0.032)
  create_atoms CPU = 0.000 seconds
create_atoms 2 single 2.45000000e-03 1.00275000e-03 6.00000000e-03 units box
Created 1 atoms
  using box units in orthogonal box = (0 0 0) to (0.012 0.0024 0.032)
  create_atoms CPU = 0.000 seconds
create_atoms 2 single 2.43787019e-03 1.00275000e-03 6.10377714e-03 units box
Created 1 atoms
  using box units in orthogonal box = (0 0 0) to (0.012 0.0024 0.032)
  create_atoms CPU = 0.000 seconds
create_atoms 2 single 2.40213469e-03 1.00275000e-03 6.20195963e-03 units box
Created 1 atoms
  using box units in orthogonal box = (0 0 0) to (0.012 0.0024 0.032)
  create_atoms CPU = 0.000 seconds
create_atoms 2 single 2.34472000e-03 1.00275000e-03 6.28925442e-03 units box
Created 1 atoms
  using box units in orthogonal box = (0 0 0) to (0.012 0.0024 0.032)
  create_atoms CPU = 0.000 seconds
create_atoms 2 single 2.26872137e-03 1.00275000e-03 6.36095544e-03 units box
Created 1 atoms
  using box units in orthogonal box = (0 0 0) to (0.012 0.0024 0.032)
  create_atoms CPU = 0.000 seconds
create_atoms 2 single 2.17823589e-03 1.00275000e-03 6.41319725e-03 units box
Created 1 atoms
  using box units in orthogonal box = (0 0 0) to (0.012 0.0024 0.032)
  create_atoms CPU = 0.000 seconds
create_atoms 2 single 2.07814168e-03 1.00275000e-03 6.44316349e-03 units box
Created 1 atoms
  using box units in orthogonal box = (0 0 0) to (0.012 0.0024 0.032)
  create_atoms CPU = 0.000 seconds
create_atoms 2 single 1.97383483e-03 1.00275000e-03 6.44923867e-03 units box
Created 1 atoms
  using box units in orthogonal box = (0 0 0) to (0.012 0.0024 0.032)
  create_atoms CPU = 0.000 seconds
create_atoms 2 single 1.87093855e-03 1.00275000e-03 6.43109528e-03 units box
Created 1 atoms
  using box units in orthogonal box = (0 0 0) to (0.012 0.0024 0.032)
  create_atoms CPU = 0.000 seconds
create_atoms 2 single 1.77500000e-03 1.00275000e-03 6.38971143e-03 units box
Created 1 atoms
  using box units in orthogonal box = (0 0 0) to (0.012 0.0024 0.032)
  create_atoms CPU = 0.000 seconds
create_atoms 2 single 1.69119126e-03 1.00275000e-03 6.32731814e-03 units box
Created 1 atoms
  using box units in orthogonal box = (0 0 0) to (0.012 0.0024 0.032)
  create_atoms CPU = 0.000 seconds
create_atoms 2 single 1.62403048e-03 1.00275000e-03 6.24727904e-03 units box
Created 1 atoms
  using box units in orthogonal box = (0 0 0) to (0.012 0.0024 0.032)
  create_atoms CPU = 0.000 seconds
create_atoms 2 single 1.57713832e-03 1.00275000e-03 6.15390906e-03 units box
Created 1 atoms
  using box units in orthogonal box = (0 0 0) to (0.012 0.0024 0.032)
  create_atoms CPU = 0.000 seconds
create_atoms 2 single 1.55304274e-03 1.00275000e-03 6.05224181e-03 units box
Created 1 atoms
  using box units in orthogonal box = (0 0 0) to (0.012 0.0024 0.032)
  create_atoms CPU = 0.000 seconds
create_atoms 2 single 1.55304274e-03 1.00275000e-03 5.94775819e-03 units box
Created 1 atoms
  using box units in orthogonal box = (0 0 0) to (0.012 0.0024 0.032)
  create_atoms CPU = 0.000 seconds
create_atoms 2 single 1.57713832e-03 1.00275000e-03 5.84609094e-03 units box
Created 1 atoms
  using box units in orthogonal box = (0 0 0) to (0.012 0.0024 0.032)
  create_atoms CPU = 0.000 seconds
create_atoms 2 single 1.62403048e-03 1.00275000e-03 5.75272096e-03 units box
Created 1 atoms
  using box units in orthogonal box = (0 0 0) to (0.012 0.0024 0.032)
  create_atoms CPU = 0.000 seconds
create_atoms 2 single 1.69119126e-03 1.00275000e-03 5.67268186e-03 units box
Created 1 atoms
  using box units in orthogonal box = (0 0 0) to (0.012 0.0024 0.032)
  create_atoms CPU = 0.000 seconds
create_atoms 2 single 1.77500000e-03 1.00275000e-03 5.61028857e-03 units box
Created 1 atoms
  using box units in orthogonal box = (0 0 0) to (0.012 0.0024 0.032)
  create_atoms CPU = 0.000 seconds
create_atoms 2 single 1.87093855e-03 1.00275000e-03 5.56890472e-03 units box
Created 1 atoms
  using box units in orthogonal box = (0 0 0) to (0.012 0.0024 0.032)
  create_atoms CPU = 0.000 seconds
create_atoms 2 single 1.97383483e-03 1.00275000e-03 5.55076133e-03 units box
Created 1 atoms
  using box units in orthogonal box = (0 0 0) to (0.012 0.0024 0.032)
  create_atoms CPU = 0.000 seconds
create_atoms 2 single 2.07814168e-03 1.00275000e-03 5.55683651e-03 units box
Created 1 atoms
  using box units in orthogonal box = (0 0 0) to (0.012 0.0024 0.032)
  create_atoms CPU = 0.000 seconds
create_atoms 2 single 2.17823589e-03 1.00275000e-03 5.58680275e-03 units box
Created 1 atoms
  using box units in orthogonal box = (0 0 0) to (0.012 0.0024 0.032)
  create_atoms CPU = 0.000 seconds
create_atoms 2 single 2.26872137e-03 1.00275000e-03 5.63904456e-03 units box
Created 1 atoms
  using box units in orthogonal box = (0 0 0) to (0.012 0.0024 0.032)
  create_atoms CPU = 0.000 seconds
create_atoms 2 single 2.34472000e-03 1.00275000e-03 5.71074558e-03 units box
Created 1 atoms
  using box units in orthogonal box = (0 0 0) to (0.012 0.0024 0.032)
  create_atoms CPU = 0.000 seconds
create_atoms 2 single 2.40213469e-03 1.00275000e-03 5.79804037e-03 units box
Created 1 atoms
  using box units in orthogonal box = (0 0 0) to (0.012 0.0024 0.032)
  create_atoms CPU = 0.000 seconds
create_atoms 2 single 2.43787019e-03 1.00275000e-03 5.89622286e-03 units box
Created 1 atoms
  using box units in orthogonal box = (0 0 0) to (0.012 0.0024 0.032)
  create_atoms CPU = 0.000 seconds
create_atoms 2 single 2.45000000e-03 1.10775000e-03 6.00000000e-03 units box
Created 1 atoms
  using box units in orthogonal box = (0 0 0) to (0.012 0.0024 0.032)
  create_atoms CPU = 0.000 seconds
create_atoms 2 single 2.43787019e-03 1.10775000e-03 6.10377714e-03 units box
Created 1 atoms
  using box units in orthogonal box = (0 0 0) to (0.012 0.0024 0.032)
  create_atoms CPU = 0.000 seconds
create_atoms 2 single 2.40213469e-03 1.10775000e-03 6.20195963e-03 units box
Created 1 atoms
  using box units in orthogonal box = (0 0 0) to (0.012 0.0024 0.032)
  create_atoms CPU = 0.000 seconds
create_atoms 2 single 2.34472000e-03 1.10775000e-03 6.28925442e-03 units box
Created 1 atoms
  using box units in orthogonal box = (0 0 0) to (0.012 0.0024 0.032)
  create_atoms CPU = 0.000 seconds
create_atoms 2 single 2.26872137e-03 1.10775000e-03 6.36095544e-03 units box
Created 1 atoms
  using box units in orthogonal box = (0 0 0) to (0.012 0.0024 0.032)
  create_atoms CPU = 0.000 seconds
create_atoms 2 single 2.17823589e-03 1.10775000e-03 6.41319725e-03 units box
Created 1 atoms
  using box units in orthogonal box = (0 0 0) to (0.012 0.0024 0.032)
  create_atoms CPU = 0.000 seconds
create_atoms 2 single 2.07814168e-03 1.10775000e-03 6.44316349e-03 units box
Created 1 atoms
  using box units in orthogonal box = (0 0 0) to (0.012 0.0024 0.032)
  create_atoms CPU = 0.000 seconds
create_atoms 2 single 1.97383483e-03 1.10775000e-03 6.44923867e-03 units box
Created 1 atoms
  using box units in orthogonal box = (0 0 0) to (0.012 0.0024 0.032)
  create_atoms CPU = 0.000 seconds
create_atoms 2 single 1.87093855e-03 1.10775000e-03 6.43109528e-03 units box
Created 1 atoms
  using box units in orthogonal box = (0 0 0) to (0.012 0.0024 0.032)
  create_atoms CPU = 0.000 seconds
create_atoms 2 single 1.77500000e-03 1.10775000e-03 6.38971143e-03 units box
Created 1 atoms
  using box units in orthogonal box = (0 0 0) to (0.012 0.0024 0.032)
  create_atoms CPU = 0.000 seconds
create_atoms 2 single 1.69119126e-03 1.10775000e-03 6.32731814e-03 units box
Created 1 atoms
  using box units in orthogonal box = (0 0 0) to (0.012 0.0024 0.032)
  create_atoms CPU = 0.000 seconds
create_atoms 2 single 1.62403048e-03 1.10775000e-03 6.24727904e-03 units box
Created 1 atoms
  using box units in orthogonal box = (0 0 0) to (0.012 0.0024 0.032)
  create_atoms CPU = 0.000 seconds
create_atoms 2 single 1.57713832e-03 1.10775000e-03 6.15390906e-03 units box
Created 1 atoms
  using box units in orthogonal box = (0 0 0) to (0.012 0.0024 0.032)
  create_atoms CPU = 0.000 seconds
create_atoms 2 single 1.55304274e-03 1.10775000e-03 6.05224181e-03 units box
Created 1 atoms
  using box units in orthogonal box = (0 0 0) to (0.012 0.0024 0.032)
  create_atoms CPU = 0.000 seconds
create_atoms 2 single 1.55304274e-03 1.10775000e-03 5.94775819e-03 units box
Created 1 atoms
  using box units in orthogonal box = (0 0 0) to (0.012 0.0024 0.032)
  create_atoms CPU = 0.000 seconds
create_atoms 2 single 1.57713832e-03 1.10775000e-03 5.84609094e-03 units box
Created 1 atoms
  using box units in orthogonal box = (0 0 0) to (0.012 0.0024 0.032)
  create_atoms CPU = 0.000 seconds
create_atoms 2 single 1.62403048e-03 1.10775000e-03 5.75272096e-03 units box
Created 1 atoms
  using box units in orthogonal box = (0 0 0) to (0.012 0.0024 0.032)
  create_atoms CPU = 0.000 seconds
create_atoms 2 single 1.69119126e-03 1.10775000e-03 5.67268186e-03 units box
Created 1 atoms
  using box units in orthogonal box = (0 0 0) to (0.012 0.0024 0.032)
  create_atoms CPU = 0.000 seconds
create_atoms 2 single 1.77500000e-03 1.10775000e-03 5.61028857e-03 units box
Created 1 atoms
  using box units in orthogonal box = (0 0 0) to (0.012 0.0024 0.032)
  create_atoms CPU = 0.000 seconds
create_atoms 2 single 1.87093855e-03 1.10775000e-03 5.56890472e-03 units box
Created 1 atoms
  using box units in orthogonal box = (0 0 0) to (0.012 0.0024 0.032)
  create_atoms CPU = 0.000 seconds
create_atoms 2 single 1.97383483e-03 1.10775000e-03 5.55076133e-03 units box
Created 1 atoms
  using box units in orthogonal box = (0 0 0) to (0.012 0.0024 0.032)
  create_atoms CPU = 0.000 seconds
create_atoms 2 single 2.07814168e-03 1.10775000e-03 5.55683651e-03 units box
Created 1 atoms
  using box units in orthogonal box = (0 0 0) to (0.012 0.0024 0.032)
  create_atoms CPU = 0.000 seconds
create_atoms 2 single 2.17823589e-03 1.10775000e-03 5.58680275e-03 units box
Created 1 atoms
  using box units in orthogonal box = (0 0 0) to (0.012 0.0024 0.032)
  create_atoms CPU = 0.000 seconds
create_atoms 2 single 2.26872137e-03 1.10775000e-03 5.63904456e-03 units box
Created 1 atoms
  using box units in orthogonal box = (0 0 0) to (0.012 0.0024 0.032)
  create_atoms CPU = 0.000 seconds
create_atoms 2 single 2.34472000e-03 1.10775000e-03 5.71074558e-03 units box
Created 1 atoms
  using box units in orthogonal box = (0 0 0) to (0.012 0.0024 0.032)
  create_atoms CPU = 0.000 seconds
create_atoms 2 single 2.40213469e-03 1.10775000e-03 5.79804037e-03 units box
Created 1 atoms
  using box units in orthogonal box = (0 0 0) to (0.012 0.0024 0.032)
  create_atoms CPU = 0.000 seconds
create_atoms 2 single 2.43787019e-03 1.10775000e-03 5.89622286e-03 units box
Created 1 atoms
  using box units in orthogonal box = (0 0 0) to (0.012 0.0024 0.032)
  create_atoms CPU = 0.000 seconds
create_atoms 2 single 2.45000000e-03 1.21275000e-03 6.00000000e-03 units box
Created 1 atoms
  using box units in orthogonal box = (0 0 0) to (0.012 0.0024 0.032)
  create_atoms CPU = 0.000 seconds
create_atoms 2 single 2.43787019e-03 1.21275000e-03 6.10377714e-03 units box
Created 1 atoms
  using box units in orthogonal box = (0 0 0) to (0.012 0.0024 0.032)
  create_atoms CPU = 0.000 seconds
create_atoms 2 single 2.40213469e-03 1.21275000e-03 6.20195963e-03 units box
Created 1 atoms
  using box units in orthogonal box = (0 0 0) to (0.012 0.0024 0.032)
  create_atoms CPU = 0.000 seconds
create_atoms 2 single 2.34472000e-03 1.21275000e-03 6.28925442e-03 units box
Created 1 atoms
  using box units in orthogonal box = (0 0 0) to (0.012 0.0024 0.032)
  create_atoms CPU = 0.000 seconds
create_atoms 2 single 2.26872137e-03 1.21275000e-03 6.36095544e-03 units box
Created 1 atoms
  using box units in orthogonal box = (0 0 0) to (0.012 0.0024 0.032)
  create_atoms CPU = 0.000 seconds
create_atoms 2 single 2.17823589e-03 1.21275000e-03 6.41319725e-03 units box
Created 1 atoms
  using box units in orthogonal box = (0 0 0) to (0.012 0.0024 0.032)
  create_atoms CPU = 0.000 seconds
create_atoms 2 single 2.07814168e-03 1.21275000e-03 6.44316349e-03 units box
Created 1 atoms
  using box units in orthogonal box = (0 0 0) to (0.012 0.0024 0.032)
  create_atoms CPU = 0.000 seconds
create_atoms 2 single 1.97383483e-03 1.21275000e-03 6.44923867e-03 units box
Created 1 atoms
  using box units in orthogonal box = (0 0 0) to (0.012 0.0024 0.032)
  create_atoms CPU = 0.000 seconds
create_atoms 2 single 1.87093855e-03 1.21275000e-03 6.43109528e-03 units box
Created 1 atoms
  using box units in orthogonal box = (0 0 0) to (0.012 0.0024 0.032)
  create_atoms CPU = 0.000 seconds
create_atoms 2 single 1.77500000e-03 1.21275000e-03 6.38971143e-03 units box
Created 1 atoms
  using box units in orthogonal box = (0 0 0) to (0.012 0.0024 0.032)
  create_atoms CPU = 0.000 seconds
create_atoms 2 single 1.69119126e-03 1.21275000e-03 6.32731814e-03 units box
Created 1 atoms
  using box units in orthogonal box = (0 0 0) to (0.012 0.0024 0.032)
  create_atoms CPU = 0.000 seconds
create_atoms 2 single 1.62403048e-03 1.21275000e-03 6.24727904e-03 units box
Created 1 atoms
  using box units in orthogonal box = (0 0 0) to (0.012 0.0024 0.032)
  create_atoms CPU = 0.000 seconds
create_atoms 2 single 1.57713832e-03 1.21275000e-03 6.15390906e-03 units box
Created 1 atoms
  using box units in orthogonal box = (0 0 0) to (0.012 0.0024 0.032)
  create_atoms CPU = 0.000 seconds
create_atoms 2 single 1.55304274e-03 1.21275000e-03 6.05224181e-03 units box
Created 1 atoms
  using box units in orthogonal box = (0 0 0) to (0.012 0.0024 0.032)
  create_atoms CPU = 0.000 seconds
create_atoms 2 single 1.55304274e-03 1.21275000e-03 5.94775819e-03 units box
Created 1 atoms
  using box units in orthogonal box = (0 0 0) to (0.012 0.0024 0.032)
  create_atoms CPU = 0.000 seconds
create_atoms 2 single 1.57713832e-03 1.21275000e-03 5.84609094e-03 units box
Created 1 atoms
  using box units in orthogonal box = (0 0 0) to (0.012 0.0024 0.032)
  create_atoms CPU = 0.000 seconds
create_atoms 2 single 1.62403048e-03 1.21275000e-03 5.75272096e-03 units box
Created 1 atoms
  using box units in orthogonal box = (0 0 0) to (0.012 0.0024 0.032)
  create_atoms CPU = 0.000 seconds
create_atoms 2 single 1.69119126e-03 1.21275000e-03 5.67268186e-03 units box
Created 1 atoms
  using box units in orthogonal box = (0 0 0) to (0.012 0.0024 0.032)
  create_atoms CPU = 0.000 seconds
create_atoms 2 single 1.77500000e-03 1.21275000e-03 5.61028857e-03 units box
Created 1 atoms
  using box units in orthogonal box = (0 0 0) to (0.012 0.0024 0.032)
  create_atoms CPU = 0.000 seconds
create_atoms 2 single 1.87093855e-03 1.21275000e-03 5.56890472e-03 units box
Created 1 atoms
  using box units in orthogonal box = (0 0 0) to (0.012 0.0024 0.032)
  create_atoms CPU = 0.000 seconds
create_atoms 2 single 1.97383483e-03 1.21275000e-03 5.55076133e-03 units box
Created 1 atoms
  using box units in orthogonal box = (0 0 0) to (0.012 0.0024 0.032)
  create_atoms CPU = 0.000 seconds
create_atoms 2 single 2.07814168e-03 1.21275000e-03 5.55683651e-03 units box
Created 1 atoms
  using box units in orthogonal box = (0 0 0) to (0.012 0.0024 0.032)
  create_atoms CPU = 0.000 seconds
create_atoms 2 single 2.17823589e-03 1.21275000e-03 5.58680275e-03 units box
Created 1 atoms
  using box units in orthogonal box = (0 0 0) to (0.012 0.0024 0.032)
  create_atoms CPU = 0.000 seconds
create_atoms 2 single 2.26872137e-03 1.21275000e-03 5.63904456e-03 units box
Created 1 atoms
  using box units in orthogonal box = (0 0 0) to (0.012 0.0024 0.032)
  create_atoms CPU = 0.000 seconds
create_atoms 2 single 2.34472000e-03 1.21275000e-03 5.71074558e-03 units box
Created 1 atoms
  using box units in orthogonal box = (0 0 0) to (0.012 0.0024 0.032)
  create_atoms CPU = 0.000 seconds
create_atoms 2 single 2.40213469e-03 1.21275000e-03 5.79804037e-03 units box
Created 1 atoms
  using box units in orthogonal box = (0 0 0) to (0.012 0.0024 0.032)
  create_atoms CPU = 0.000 seconds
create_atoms 2 single 2.43787019e-03 1.21275000e-03 5.89622286e-03 units box
Created 1 atoms
  using box units in orthogonal box = (0 0 0) to (0.012 0.0024 0.032)
  create_atoms CPU = 0.000 seconds
create_atoms 2 single 2.45000000e-03 1.31775000e-03 6.00000000e-03 units box
Created 1 atoms
  using box units in orthogonal box = (0 0 0) to (0.012 0.0024 0.032)
  create_atoms CPU = 0.000 seconds
create_atoms 2 single 2.43787019e-03 1.31775000e-03 6.10377714e-03 units box
Created 1 atoms
  using box units in orthogonal box = (0 0 0) to (0.012 0.0024 0.032)
  create_atoms CPU = 0.000 seconds
create_atoms 2 single 2.40213469e-03 1.31775000e-03 6.20195963e-03 units box
Created 1 atoms
  using box units in orthogonal box = (0 0 0) to (0.012 0.0024 0.032)
  create_atoms CPU = 0.000 seconds
create_atoms 2 single 2.34472000e-03 1.31775000e-03 6.28925442e-03 units box
Created 1 atoms
  using box units in orthogonal box = (0 0 0) to (0.012 0.0024 0.032)
  create_atoms CPU = 0.000 seconds
create_atoms 2 single 2.26872137e-03 1.31775000e-03 6.36095544e-03 units box
Created 1 atoms
  using box units in orthogonal box = (0 0 0) to (0.012 0.0024 0.032)
  create_atoms CPU = 0.000 seconds
create_atoms 2 single 2.17823589e-03 1.31775000e-03 6.41319725e-03 units box
Created 1 atoms
  using box units in orthogonal box = (0 0 0) to (0.012 0.0024 0.032)
  create_atoms CPU = 0.000 seconds
create_atoms 2 single 2.07814168e-03 1.31775000e-03 6.44316349e-03 units box
Created 1 atoms
  using box units in orthogonal box = (0 0 0) to (0.012 0.0024 0.032)
  create_atoms CPU = 0.000 seconds
create_atoms 2 single 1.97383483e-03 1.31775000e-03 6.44923867e-03 units box
Created 1 atoms
  using box units in orthogonal box = (0 0 0) to (0.012 0.0024 0.032)
  create_atoms CPU = 0.000 seconds
create_atoms 2 single 1.87093855e-03 1.31775000e-03 6.43109528e-03 units box
Created 1 atoms
  using box units in orthogonal box = (0 0 0) to (0.012 0.0024 0.032)
  create_atoms CPU = 0.000 seconds
create_atoms 2 single 1.77500000e-03 1.31775000e-03 6.38971143e-03 units box
Created 1 atoms
  using box units in orthogonal box = (0 0 0) to (0.012 0.0024 0.032)
  create_atoms CPU = 0.000 seconds
create_atoms 2 single 1.69119126e-03 1.31775000e-03 6.32731814e-03 units box
Created 1 atoms
  using box units in orthogonal box = (0 0 0) to (0.012 0.0024 0.032)
  create_atoms CPU = 0.000 seconds
create_atoms 2 single 1.62403048e-03 1.31775000e-03 6.24727904e-03 units box
Created 1 atoms
  using box units in orthogonal box = (0 0 0) to (0.012 0.0024 0.032)
  create_atoms CPU = 0.000 seconds
create_atoms 2 single 1.57713832e-03 1.31775000e-03 6.15390906e-03 units box
Created 1 atoms
  using box units in orthogonal box = (0 0 0) to (0.012 0.0024 0.032)
  create_atoms CPU = 0.000 seconds
create_atoms 2 single 1.55304274e-03 1.31775000e-03 6.05224181e-03 units box
Created 1 atoms
  using box units in orthogonal box = (0 0 0) to (0.012 0.0024 0.032)
  create_atoms CPU = 0.000 seconds
create_atoms 2 single 1.55304274e-03 1.31775000e-03 5.94775819e-03 units box
Created 1 atoms
  using box units in orthogonal box = (0 0 0) to (0.012 0.0024 0.032)
  create_atoms CPU = 0.000 seconds
create_atoms 2 single 1.57713832e-03 1.31775000e-03 5.84609094e-03 units box
Created 1 atoms
  using box units in orthogonal box = (0 0 0) to (0.012 0.0024 0.032)
  create_atoms CPU = 0.000 seconds
create_atoms 2 single 1.62403048e-03 1.31775000e-03 5.75272096e-03 units box
Created 1 atoms
  using box units in orthogonal box = (0 0 0) to (0.012 0.0024 0.032)
  create_atoms CPU = 0.000 seconds
create_atoms 2 single 1.69119126e-03 1.31775000e-03 5.67268186e-03 units box
Created 1 atoms
  using box units in orthogonal box = (0 0 0) to (0.012 0.0024 0.032)
  create_atoms CPU = 0.000 seconds
create_atoms 2 single 1.77500000e-03 1.31775000e-03 5.61028857e-03 units box
Created 1 atoms
  using box units in orthogonal box = (0 0 0) to (0.012 0.0024 0.032)
  create_atoms CPU = 0.000 seconds
create_atoms 2 single 1.87093855e-03 1.31775000e-03 5.56890472e-03 units box
Created 1 atoms
  using box units in orthogonal box = (0 0 0) to (0.012 0.0024 0.032)
  create_atoms CPU = 0.000 seconds
create_atoms 2 single 1.97383483e-03 1.31775000e-03 5.55076133e-03 units box
Created 1 atoms
  using box units in orthogonal box = (0 0 0) to (0.012 0.0024 0.032)
  create_atoms CPU = 0.000 seconds
create_atoms 2 single 2.07814168e-03 1.31775000e-03 5.55683651e-03 units box
Created 1 atoms
  using box units in orthogonal box = (0 0 0) to (0.012 0.0024 0.032)
  create_atoms CPU = 0.000 seconds
create_atoms 2 single 2.17823589e-03 1.31775000e-03 5.58680275e-03 units box
Created 1 atoms
  using box units in orthogonal box = (0 0 0) to (0.012 0.0024 0.032)
  create_atoms CPU = 0.000 seconds
create_atoms 2 single 2.26872137e-03 1.31775000e-03 5.63904456e-03 units box
Created 1 atoms
  using box units in orthogonal box = (0 0 0) to (0.012 0.0024 0.032)
  create_atoms CPU = 0.000 seconds
create_atoms 2 single 2.34472000e-03 1.31775000e-03 5.71074558e-03 units box
Created 1 atoms
  using box units in orthogonal box = (0 0 0) to (0.012 0.0024 0.032)
  create_atoms CPU = 0.000 seconds
create_atoms 2 single 2.40213469e-03 1.31775000e-03 5.79804037e-03 units box
Created 1 atoms
  using box units in orthogonal box = (0 0 0) to (0.012 0.0024 0.032)
  create_atoms CPU = 0.000 seconds
create_atoms 2 single 2.43787019e-03 1.31775000e-03 5.89622286e-03 units box
Created 1 atoms
  using box units in orthogonal box = (0 0 0) to (0.012 0.0024 0.032)
  create_atoms CPU = 0.000 seconds
create_atoms 2 single 2.45000000e-03 1.42275000e-03 6.00000000e-03 units box
Created 1 atoms
  using box units in orthogonal box = (0 0 0) to (0.012 0.0024 0.032)
  create_atoms CPU = 0.000 seconds
create_atoms 2 single 2.43787019e-03 1.42275000e-03 6.10377714e-03 units box
Created 1 atoms
  using box units in orthogonal box = (0 0 0) to (0.012 0.0024 0.032)
  create_atoms CPU = 0.000 seconds
create_atoms 2 single 2.40213469e-03 1.42275000e-03 6.20195963e-03 units box
Created 1 atoms
  using box units in orthogonal box = (0 0 0) to (0.012 0.0024 0.032)
  create_atoms CPU = 0.000 seconds
create_atoms 2 single 2.34472000e-03 1.42275000e-03 6.28925442e-03 units box
Created 1 atoms
  using box units in orthogonal box = (0 0 0) to (0.012 0.0024 0.032)
  create_atoms CPU = 0.000 seconds
create_atoms 2 single 2.26872137e-03 1.42275000e-03 6.36095544e-03 units box
Created 1 atoms
  using box units in orthogonal box = (0 0 0) to (0.012 0.0024 0.032)
  create_atoms CPU = 0.000 seconds
create_atoms 2 single 2.17823589e-03 1.42275000e-03 6.41319725e-03 units box
Created 1 atoms
  using box units in orthogonal box = (0 0 0) to (0.012 0.0024 0.032)
  create_atoms CPU = 0.000 seconds
create_atoms 2 single 2.07814168e-03 1.42275000e-03 6.44316349e-03 units box
Created 1 atoms
  using box units in orthogonal box = (0 0 0) to (0.012 0.0024 0.032)
  create_atoms CPU = 0.000 seconds
create_atoms 2 single 1.97383483e-03 1.42275000e-03 6.44923867e-03 units box
Created 1 atoms
  using box units in orthogonal box = (0 0 0) to (0.012 0.0024 0.032)
  create_atoms CPU = 0.000 seconds
create_atoms 2 single 1.87093855e-03 1.42275000e-03 6.43109528e-03 units box
Created 1 atoms
  using box units in orthogonal box = (0 0 0) to (0.012 0.0024 0.032)
  create_atoms CPU = 0.000 seconds
create_atoms 2 single 1.77500000e-03 1.42275000e-03 6.38971143e-03 units box
Created 1 atoms
  using box units in orthogonal box = (0 0 0) to (0.012 0.0024 0.032)
  create_atoms CPU = 0.000 seconds
create_atoms 2 single 1.69119126e-03 1.42275000e-03 6.32731814e-03 units box
Created 1 atoms
  using box units in orthogonal box = (0 0 0) to (0.012 0.0024 0.032)
  create_atoms CPU = 0.000 seconds
create_atoms 2 single 1.62403048e-03 1.42275000e-03 6.24727904e-03 units box
Created 1 atoms
  using box units in orthogonal box = (0 0 0) to (0.012 0.0024 0.032)
  create_atoms CPU = 0.000 seconds
create_atoms 2 single 1.57713832e-03 1.42275000e-03 6.15390906e-03 units box
Created 1 atoms
  using box units in orthogonal box = (0 0 0) to (0.012 0.0024 0.032)
  create_atoms CPU = 0.000 seconds
create_atoms 2 single 1.55304274e-03 1.42275000e-03 6.05224181e-03 units box
Created 1 atoms
  using box units in orthogonal box = (0 0 0) to (0.012 0.0024 0.032)
  create_atoms CPU = 0.000 seconds
create_atoms 2 single 1.55304274e-03 1.42275000e-03 5.94775819e-03 units box
Created 1 atoms
  using box units in orthogonal box = (0 0 0) to (0.012 0.0024 0.032)
  create_atoms CPU = 0.000 seconds
create_atoms 2 single 1.57713832e-03 1.42275000e-03 5.84609094e-03 units box
Created 1 atoms
  using box units in orthogonal box = (0 0 0) to (0.012 0.0024 0.032)
  create_atoms CPU = 0.000 seconds
create_atoms 2 single 1.62403048e-03 1.42275000e-03 5.75272096e-03 units box
Created 1 atoms
  using box units in orthogonal box = (0 0 0) to (0.012 0.0024 0.032)
  create_atoms CPU = 0.000 seconds
create_atoms 2 single 1.69119126e-03 1.42275000e-03 5.67268186e-03 units box
Created 1 atoms
  using box units in orthogonal box = (0 0 0) to (0.012 0.0024 0.032)
  create_atoms CPU = 0.000 seconds
create_atoms 2 single 1.77500000e-03 1.42275000e-03 5.61028857e-03 units box
Created 1 atoms
  using box units in orthogonal box = (0 0 0) to (0.012 0.0024 0.032)
  create_atoms CPU = 0.000 seconds
create_atoms 2 single 1.87093855e-03 1.42275000e-03 5.56890472e-03 units box
Created 1 atoms
  using box units in orthogonal box = (0 0 0) to (0.012 0.0024 0.032)
  create_atoms CPU = 0.000 seconds
create_atoms 2 single 1.97383483e-03 1.42275000e-03 5.55076133e-03 units box
Created 1 atoms
  using box units in orthogonal box = (0 0 0) to (0.012 0.0024 0.032)
  create_atoms CPU = 0.000 seconds
create_atoms 2 single 2.07814168e-03 1.42275000e-03 5.55683651e-03 units box
Created 1 atoms
  using box units in orthogonal box = (0 0 0) to (0.012 0.0024 0.032)
  create_atoms CPU = 0.000 seconds
create_atoms 2 single 2.17823589e-03 1.42275000e-03 5.58680275e-03 units box
Created 1 atoms
  using box units in orthogonal box = (0 0 0) to (0.012 0.0024 0.032)
  create_atoms CPU = 0.000 seconds
create_atoms 2 single 2.26872137e-03 1.42275000e-03 5.63904456e-03 units box
Created 1 atoms
  using box units in orthogonal box = (0 0 0) to (0.012 0.0024 0.032)
  create_atoms CPU = 0.000 seconds
create_atoms 2 single 2.34472000e-03 1.42275000e-03 5.71074558e-03 units box
Created 1 atoms
  using box units in orthogonal box = (0 0 0) to (0.012 0.0024 0.032)
  create_atoms CPU = 0.000 seconds
create_atoms 2 single 2.40213469e-03 1.42275000e-03 5.79804037e-03 units box
Created 1 atoms
  using box units in orthogonal box = (0 0 0) to (0.012 0.0024 0.032)
  create_atoms CPU = 0.000 seconds
create_atoms 2 single 2.43787019e-03 1.42275000e-03 5.89622286e-03 units box
Created 1 atoms
  using box units in orthogonal box = (0 0 0) to (0.012 0.0024 0.032)
  create_atoms CPU = 0.000 seconds
create_atoms 2 single 2.45000000e-03 1.52775000e-03 6.00000000e-03 units box
Created 1 atoms
  using box units in orthogonal box = (0 0 0) to (0.012 0.0024 0.032)
  create_atoms CPU = 0.000 seconds
create_atoms 2 single 2.43787019e-03 1.52775000e-03 6.10377714e-03 units box
Created 1 atoms
  using box units in orthogonal box = (0 0 0) to (0.012 0.0024 0.032)
  create_atoms CPU = 0.000 seconds
create_atoms 2 single 2.40213469e-03 1.52775000e-03 6.20195963e-03 units box
Created 1 atoms
  using box units in orthogonal box = (0 0 0) to (0.012 0.0024 0.032)
  create_atoms CPU = 0.000 seconds
create_atoms 2 single 2.34472000e-03 1.52775000e-03 6.28925442e-03 units box
Created 1 atoms
  using box units in orthogonal box = (0 0 0) to (0.012 0.0024 0.032)
  create_atoms CPU = 0.000 seconds
create_atoms 2 single 2.26872137e-03 1.52775000e-03 6.36095544e-03 units box
Created 1 atoms
  using box units in orthogonal box = (0 0 0) to (0.012 0.0024 0.032)
  create_atoms CPU = 0.000 seconds
create_atoms 2 single 2.17823589e-03 1.52775000e-03 6.41319725e-03 units box
Created 1 atoms
  using box units in orthogonal box = (0 0 0) to (0.012 0.0024 0.032)
  create_atoms CPU = 0.000 seconds
create_atoms 2 single 2.07814168e-03 1.52775000e-03 6.44316349e-03 units box
Created 1 atoms
  using box units in orthogonal box = (0 0 0) to (0.012 0.0024 0.032)
  create_atoms CPU = 0.000 seconds
create_atoms 2 single 1.97383483e-03 1.52775000e-03 6.44923867e-03 units box
Created 1 atoms
  using box units in orthogonal box = (0 0 0) to (0.012 0.0024 0.032)
  create_atoms CPU = 0.000 seconds
create_atoms 2 single 1.87093855e-03 1.52775000e-03 6.43109528e-03 units box
Created 1 atoms
  using box units in orthogonal box = (0 0 0) to (0.012 0.0024 0.032)
  create_atoms CPU = 0.000 seconds
create_atoms 2 single 1.77500000e-03 1.52775000e-03 6.38971143e-03 units box
Created 1 atoms
  using box units in orthogonal box = (0 0 0) to (0.012 0.0024 0.032)
  create_atoms CPU = 0.000 seconds
create_atoms 2 single 1.69119126e-03 1.52775000e-03 6.32731814e-03 units box
Created 1 atoms
  using box units in orthogonal box = (0 0 0) to (0.012 0.0024 0.032)
  create_atoms CPU = 0.000 seconds
create_atoms 2 single 1.62403048e-03 1.52775000e-03 6.24727904e-03 units box
Created 1 atoms
  using box units in orthogonal box = (0 0 0) to (0.012 0.0024 0.032)
  create_atoms CPU = 0.000 seconds
create_atoms 2 single 1.57713832e-03 1.52775000e-03 6.15390906e-03 units box
Created 1 atoms
  using box units in orthogonal box = (0 0 0) to (0.012 0.0024 0.032)
  create_atoms CPU = 0.000 seconds
create_atoms 2 single 1.55304274e-03 1.52775000e-03 6.05224181e-03 units box
Created 1 atoms
  using box units in orthogonal box = (0 0 0) to (0.012 0.0024 0.032)
  create_atoms CPU = 0.000 seconds
[...]
fix             wallx mobile wall/gran hooke/history 1000 NULL 2 NULL 0.5 0 xplane 0.0 ${lx}
fix             wallx mobile wall/gran hooke/history 1000 NULL 2 NULL 0.5 0 xplane 0.0 0.012
fix             wally mobile wall/gran hooke/history ${kn} NULL ${gamma} NULL ${mu} 0 yplane 0.0 ${ly}
fix             wally mobile wall/gran hooke/history 1000 NULL ${gamma} NULL ${mu} 0 yplane 0.0 ${ly}
fix             wally mobile wall/gran hooke/history 1000 NULL 2 NULL ${mu} 0 yplane 0.0 ${ly}
fix             wally mobile wall/gran hooke/history 1000 NULL 2 NULL 0.5 0 yplane 0.0 ${ly}
fix             wally mobile wall/gran hooke/history 1000 NULL 2 NULL 0.5 0 yplane 0.0 0.0024

region          feed block ${feed_xlo} ${feed_xhi} ${feed_ylo} ${feed_yhi} ${feed_zlo} ${feed_zhi} units box
region          feed block 0.0005 ${feed_xhi} ${feed_ylo} ${feed_yhi} ${feed_zlo} ${feed_zhi} units box
region          feed block 0.0005 0.0115 ${feed_ylo} ${feed_yhi} ${feed_zlo} ${feed_zhi} units box
region          feed block 0.0005 0.0115 0.0002 ${feed_yhi} ${feed_zlo} ${feed_zhi} units box
region          feed block 0.0005 0.0115 0.0002 0.0022 ${feed_zlo} ${feed_zhi} units box
region          feed block 0.0005 0.0115 0.0002 0.0022 0.0285 ${feed_zhi} units box
region          feed block 0.0005 0.0115 0.0002 0.0022 0.0285 0.031 units box
region          tube_bank block 0 ${lx} 0 ${ly} ${bank_zlo} ${bank_zhi} units box
region          tube_bank block 0 0.012 0 ${ly} ${bank_zlo} ${bank_zhi} units box
region          tube_bank block 0 0.012 0 0.0024 ${bank_zlo} ${bank_zhi} units box
region          tube_bank block 0 0.012 0 0.0024 0.0052 ${bank_zhi} units box
region          tube_bank block 0 0.012 0 0.0024 0.0052 0.0272 units box
region          outlet block 0 ${lx} 0 ${ly} 0 ${outlet_zhi} units box
region          outlet block 0 0.012 0 ${ly} 0 ${outlet_zhi} units box
region          outlet block 0 0.012 0 0.0024 0 ${outlet_zhi} units box
region          outlet block 0 0.012 0 0.0024 0 0.0012 units box
group           mobile_bank dynamic mobile region tube_bank every ${global_every}
group           mobile_bank dynamic mobile region tube_bank every 2000
dynamic group mobile_bank defined
group           mobile_outlet dynamic mobile region outlet every ${global_every}
group           mobile_outlet dynamic mobile region outlet every 2000
dynamic group mobile_outlet defined

fix             feed mobile pour ${npart} 1 643219 region feed diam range ${dlo} ${dhi} dens ${rho} ${rho} vel -0.03 0.03 -0.01 0.01 -0.35 vol 0.22 100 id max
fix             feed mobile pour 500000 1 643219 region feed diam range ${dlo} ${dhi} dens ${rho} ${rho} vel -0.03 0.03 -0.01 0.01 -0.35 vol 0.22 100 id max
fix             feed mobile pour 500000 1 643219 region feed diam range 8e-05 ${dhi} dens ${rho} ${rho} vel -0.03 0.03 -0.01 0.01 -0.35 vol 0.22 100 id max
fix             feed mobile pour 500000 1 643219 region feed diam range 8e-05 0.00012 dens ${rho} ${rho} vel -0.03 0.03 -0.01 0.01 -0.35 vol 0.22 100 id max
fix             feed mobile pour 500000 1 643219 region feed diam range 8e-05 0.00012 dens 3300 ${rho} vel -0.03 0.03 -0.01 0.01 -0.35 vol 0.22 100 id max
fix             feed mobile pour 500000 1 643219 region feed diam range 8e-05 0.00012 dens 3300 3300 vel -0.03 0.03 -0.01 0.01 -0.35 vol 0.22 100 id max
fix             outlet mobile evaporate ${outlet_every} ${outlet_max} outlet ${outlet_seed}
fix             outlet mobile evaporate 1000 ${outlet_max} outlet ${outlet_seed}
fix             outlet mobile evaporate 1000 100000 outlet ${outlet_seed}
fix             outlet mobile evaporate 1000 100000 outlet 928371

timestep        ${dt}
timestep        2e-07

compute         contact_count mobile contact/atom
compute         ke_atom mobile ke/atom
compute         erot_atom mobile erotate/sphere/atom
compute         sum_contact mobile reduce sum c_contact_count
compute         max_contact mobile reduce max c_contact_count
compute         sum_ke mobile reduce sum c_ke_atom
compute         sum_erot mobile reduce sum c_erot_atom
compute         bank_contact mobile_bank reduce sum c_contact_count
compute         bank_ke mobile_bank reduce sum c_ke_atom
compute         bank_erot mobile_bank reduce sum c_erot_atom

variable        nmobile equal count(mobile)
variable        nbank equal count(mobile_bank)
variable        noutlet equal count(mobile_outlet)
variable        dt_s equal ${dt}
variable        dt_s equal 2e-07
variable        sample_dt_s equal ${dt}*${contact_every}
variable        sample_dt_s equal 2e-07*${contact_every}
variable        sample_dt_s equal 2e-07*20000
variable        pre_steps equal ${dump_start}
variable        pre_steps equal 200000
variable        production_steps equal ${dump_stop}-${dump_start}
variable        production_steps equal 600000-${dump_start}
variable        production_steps equal 600000-200000
variable        post_steps equal ${nsteps}-${dump_stop}
variable        post_steps equal 600000-${dump_stop}
variable        post_steps equal 600000-600000

fix             global_out all ave/time ${global_every} 1 ${global_every}                 v_nmobile v_nbank v_noutlet f_outlet c_sum_contact c_max_contact c_sum_ke c_sum_erot c_bank_contact c_bank_ke c_bank_erot                 file global_metrics.dat
fix             global_out all ave/time 2000 1 ${global_every}                 v_nmobile v_nbank v_noutlet f_outlet c_sum_contact c_max_contact c_sum_ke c_sum_erot c_bank_contact c_bank_ke c_bank_erot                 file global_metrics.dat
fix             global_out all ave/time 2000 1 2000                 v_nmobile v_nbank v_noutlet f_outlet c_sum_contact c_max_contact c_sum_ke c_sum_erot c_bank_contact c_bank_ke c_bank_erot                 file global_metrics.dat

thermo          ${thermo_every}
thermo          20000
thermo_style    custom step time atoms v_nmobile v_nbank v_noutlet f_outlet ke c_sum_contact c_max_contact c_sum_ke c_sum_erot
thermo_modify   lost warn

print           "Continuous-feed Helium Extraction and Acquisition Testbed (HEAT)-like tube-bank run label = ${run_label}"
Continuous-feed Helium Extraction and Acquisition Testbed (HEAT)-like tube-bank run label = test
print           "dt_s = ${dt_s}"
dt_s = 2e-07
print           "contact_sample_dt_s = ${sample_dt_s}"
contact_sample_dt_s = 0.004
print           "tube_bank_z_range_m = ${bank_zlo} ${bank_zhi}"
tube_bank_z_range_m = 0.0052 0.0272
print           "outlet_z_range_m = 0 ${outlet_zhi}"
outlet_z_range_m = 0 0.0012
print           "outlet_delete_every_steps = ${outlet_every}"
outlet_delete_every_steps = 1000
print           "outlet_delete_max_atoms = ${outlet_max}"
outlet_delete_max_atoms = 100000
print           "dump_window_steps = ${dump_start} ${dump_stop}"
dump_window_steps = 200000 600000

run             ${pre_steps}
run             200000
Generated 0 of 1 mixed pair_coeff terms from geometric mixing rule
Particle insertion: 13373 every 32715 steps, 500000 by step 1210456
Neighbor list info ...
  update: every = 1 steps, delay = 0 steps, check = yes
  max neighbors/atom: 2000, page size: 100000
  master list distance cutoff = 0.00017
  ghost atom cutoff = 0.00017
  binsize = 8.5e-05, bins = 142 29 377
  2 neighbor lists, perpetual/occasional/extra = 1 1 0
  (1) pair gran/hooke/history, perpetual
      attributes: half, newton off, size, history
      pair build: half/size/bin/atomonly/newtoff
      stencil: full/bin/3d
      bin: standard
  (2) compute contact/atom, occasional
      attributes: half, newton off, size
      pair build: half/size/bin/atomonly/newtoff
      stencil: full/bin/3d
      bin: standard
Per MPI rank memory allocation (min/avg/max) = 6.675 | 10.87 | 12.28 Mbytes
   Step          Time         Atoms      v_nmobile       v_nbank       v_noutlet       f_outlet        KinEng     c_sum_contact  c_max_contact     c_sum_ke      c_sum_erot  
         0   0                  12474   0              0              0              0              0              0             -1e+20          0              0            
WARNING: Fewer insertions than requested (src/GRANULAR/fix_pour.cpp:691)
     20000   0.004              21615   9141           753            0              0              1.3957865e-06  2              1              1.3957865e-06  3.4490948e-10
WARNING: Fewer insertions than requested (src/GRANULAR/fix_pour.cpp:691)
     40000   0.008              29811   17337          4861           0              0              2.6544593e-06  26             1              2.6544593e-06  5.4127e-08   
     60000   0.012              29811   17337          10840          0              0              2.8297068e-06  56             1              2.8297068e-06  1.0295643e-07
WARNING: Fewer insertions than requested (src/GRANULAR/fix_pour.cpp:691)
     80000   0.016              38339   25865          16265          0              0              4.1109669e-06  102            1              4.1109669e-06  2.27315e-07  
WARNING: Fewer insertions than requested (src/GRANULAR/fix_pour.cpp:691)
    100000   0.02               47164   34690          20585          0              0              5.0940704e-06  125            1              5.0940704e-06  3.2309207e-07
    120000   0.024              47164   34690          26845          0              0              5.1999221e-06  184            1              5.1999221e-06  4.1088799e-07
WARNING: Fewer insertions than requested (src/GRANULAR/fix_pour.cpp:691)
    140000   0.028              56341   43867          31010          0              0              6.3792873e-06  228            2              6.3792873e-06  4.6178499e-07
    160000   0.032              56341   43867          37043          0              0              6.3638512e-06  254            2              6.3638512e-06  5.5357085e-07
WARNING: Fewer insertions than requested (src/GRANULAR/fix_pour.cpp:691)
    180000   0.036              65434   52960          43966          0              2              7.6703058e-06  281            2              7.6703058e-06  6.2016845e-07
WARNING: Fewer insertions than requested (src/GRANULAR/fix_pour.cpp:691)
    200000   0.04               74281   61807          47516          0              9              8.7789282e-06  296            2              8.7789282e-06  6.7508541e-07
Loop time of 883.187 on 16 procs for 200000 steps with 74281 atoms

99.7% CPU use with 16 MPI tasks x 1 OpenMP threads

MPI task timing breakdown:
Section |  min time  |  avg time  |  max time  |%varavg| %total
---------------------------------------------------------------
Pair    | 0.0080048  | 3.9639     | 13.755     | 237.8 |  0.45
Neigh   | 0.035457   | 3.705      | 11.193     | 197.1 |  0.42
Comm    | 2.3036     | 67.124     | 82.362     | 237.4 |  7.60
Output  | 0.0028555  | 0.0029379  | 0.0041039  |   0.6 |  0.00
Modify  | 698.79     | 731.53     | 779.54     |  93.7 | 82.83
Other   |            | 76.86      |            |       |  8.70

Nlocal:        4642.56 ave       11084 max          12 min
Histogram: 2 4 1 1 1 2 1 1 2 1
Nghost:        453.312 ave        1241 max           4 min
Histogram: 5 3 0 0 2 2 2 0 1 1
Neighs:        3151.44 ave       12173 max           0 min
Histogram: 8 0 2 2 0 2 1 0 0 1

Total # of neighbors = 50423
Ave neighs/atom = 0.67881423
Neighbor list builds = 2928
Dangerous builds = 0

compute         cids all property/local patom1 patom2 ptype1 ptype2 cutoff radius
compute         cpair all pair/local dist dx dy dz force fx fy fz p1 p2 p3 p4 cutoff radius

dump            sync mobile custom ${sync_every} particles_sync.dump                 id type radius mass x y z vx vy vz omegax omegay omegaz fx fy fz tqx tqy tqz c_contact_count c_ke_atom c_erot_atom
dump            sync mobile custom 20000 particles_sync.dump                 id type radius mass x y z vx vy vz omegax omegay omegaz fx fy fz tqx tqy tqz c_contact_count c_ke_atom c_erot_atom
dump_modify     sync sort id

dump            contacts all local ${contact_every} contact_events.local                 index c_cids[1] c_cids[2] c_cids[3] c_cids[4]                 c_cpair[1] c_cpair[2] c_cpair[3] c_cpair[4]                 c_cpair[5] c_cpair[6] c_cpair[7] c_cpair[8]                 c_cpair[9] c_cpair[10] c_cpair[11] c_cpair[12]
dump            contacts all local 20000 contact_events.local                 index c_cids[1] c_cids[2] c_cids[3] c_cids[4]                 c_cpair[1] c_cpair[2] c_cpair[3] c_cpair[4]                 c_cpair[5] c_cpair[6] c_cpair[7] c_cpair[8]                 c_cpair[9] c_cpair[10] c_cpair[11] c_cpair[12]

dump            traj all custom ${traj_every} trajectory_viz.dump id type radius mass x y z vx vy vz
dump            traj all custom 100000 trajectory_viz.dump id type radius mass x y z vx vy vz
dump_modify     traj sort id

run             ${production_steps}
run             400000
Generated 0 of 1 mixed pair_coeff terms from geometric mixing rule
Neighbor list info ...
  update: every = 1 steps, delay = 0 steps, check = yes
  max neighbors/atom: 2000, page size: 100000
  master list distance cutoff = 0.00017
  ghost atom cutoff = 0.00017
  binsize = 8.5e-05, bins = 142 29 377
  4 neighbor lists, perpetual/occasional/extra = 1 3 0
  (1) pair gran/hooke/history, perpetual
      attributes: half, newton off, size, history
      pair build: half/size/bin/atomonly/newtoff
      stencil: full/bin/3d
      bin: standard
  (2) compute contact/atom, occasional
      attributes: half, newton off, size
      pair build: half/size/bin/atomonly/newtoff
      stencil: full/bin/3d
      bin: standard
  (3) compute property/local, occasional
      attributes: half, newton off, size
      pair build: half/size/bin/atomonly/newtoff
      stencil: full/bin/3d
      bin: standard
  (4) compute pair/local, occasional
      attributes: half, newton off, size
      pair build: half/size/bin/atomonly/newtoff
      stencil: full/bin/3d
      bin: standard
Per MPI rank memory allocation (min/avg/max) = 13.66 | 13.85 | 14.11 Mbytes
   Step          Time         Atoms      v_nmobile       v_nbank       v_noutlet       f_outlet        KinEng     c_sum_contact  c_max_contact     c_sum_ke      c_sum_erot  
    200000   0.04               74281   61807          47516          0              9              8.7789282e-06  296            2              8.7789282e-06  6.7508541e-07
WARNING: Fewer insertions than requested (src/GRANULAR/fix_pour.cpp:691)
    220000   0.044              75327   62853          53922          0              124            9.0114375e-06  365            3              9.0114375e-06  7.5206456e-07
WARNING: Fewer insertions than requested (src/GRANULAR/fix_pour.cpp:691)
    240000   0.048              83914   71440          58696          0              354            1.0099939e-05  395            2              1.0099939e-05  7.7432681e-07
    260000   0.052              83621   71147          63514          0              647            1.0014084e-05  422            2              1.0014084e-05  8.0768738e-07
WARNING: Fewer insertions than requested (src/GRANULAR/fix_pour.cpp:691)
    280000   0.056              92148   79674          68376          0              1030           1.1263478e-05  473            2              1.1263478e-05  8.2096309e-07
WARNING: Fewer insertions than requested (src/GRANULAR/fix_pour.cpp:691)
    300000   0.06               99963   87489          71658          0              1735           1.2127436e-05  532            2              1.2127436e-05  8.3293221e-07
    320000   0.064              98905   86431          76689          0              2793           1.2048556e-05  604            2              1.2048556e-05  8.6262988e-07
WARNING: Fewer insertions than requested (src/GRANULAR/fix_pour.cpp:691)
    340000   0.068             105914   93440          79010          0              4109           1.2885033e-05  553            2              1.2885033e-05  8.5040672e-07
    360000   0.072             104437   91963          82368          0              5586           1.2587009e-05  640            2              1.2587009e-05  8.6494081e-07
WARNING: Fewer insertions than requested (src/GRANULAR/fix_pour.cpp:691)
    380000   0.076             111463   98989          86093          0              7378           1.3480433e-05  676            2              1.3480433e-05  8.4925705e-07
WARNING: Fewer insertions than requested (src/GRANULAR/fix_pour.cpp:691)
    400000   0.08              117846   105372         86798          0              9604           1.4080324e-05  725            2              1.4080324e-05  8.3201777e-07
    420000   0.084             115335   102861         89820          0              12115          1.3693902e-05  754            2              1.3693902e-05  8.3322709e-07
WARNING: Fewer insertions than requested (src/GRANULAR/fix_pour.cpp:691)
    440000   0.088             121132   108658         90552          0              15031          1.4316579e-05  777            2              1.4316579e-05  8.0524196e-07
    460000   0.092             117958   105484         92193          0              18205          1.3665015e-05  795            2              1.3665015e-05  8.1190135e-07
WARNING: Fewer insertions than requested (src/GRANULAR/fix_pour.cpp:691)
    480000   0.096             123556   111082         94652          0              21638          1.4342853e-05  879            2              1.4342853e-05  8.0585159e-07
WARNING: Fewer insertions than requested (src/GRANULAR/fix_pour.cpp:691)
    500000   0.1               128605   116131         94233          0              25305          1.476245e-05   819            2              1.476245e-05   7.9277486e-07
    520000   0.104             124516   112042         96424          0              29394          1.4069467e-05  883            2              1.4069467e-05  8.0048633e-07
WARNING: Fewer insertions than requested (src/GRANULAR/fix_pour.cpp:691)
    540000   0.108             128696   116222         97162          0              33428          1.4508812e-05  950            3              1.4508812e-05  7.8110348e-07
WARNING: Fewer insertions than requested (src/GRANULAR/fix_pour.cpp:691)
    560000   0.112             133559   121085         97492          0              37248          1.4910401e-05  941            2              1.4910401e-05  7.8537854e-07
    580000   0.116             129628   117154         98761          0              41179          1.4497569e-05  1083           2              1.4497569e-05  7.9349136e-07
WARNING: Fewer insertions than requested (src/GRANULAR/fix_pour.cpp:691)
    600000   0.12              133749   121275         97731          0              45608          1.4907377e-05  1068           3              1.4907377e-05  7.7230684e-07
Loop time of 1925.7 on 16 procs for 400000 steps with 133749 atoms

99.7% CPU use with 16 MPI tasks x 1 OpenMP threads

MPI task timing breakdown:
Section |  min time  |  avg time  |  max time  |%varavg| %total
---------------------------------------------------------------
Pair    | 1.9385     | 31.02      | 65.742     | 335.9 |  1.61
Neigh   | 1.9179     | 20.643     | 43.128     | 247.4 |  1.07
Comm    | 18.254     | 139.04     | 172.77     | 324.0 |  7.22
Output  | 1.4553     | 1.4701     | 1.4862     |   0.8 |  0.08
Modify  | 1429.4     | 1533.6     | 1715.6     | 178.5 | 79.64
Other   |            | 199.9      |            |       | 10.38

Nlocal:        8359.31 ave       13217 max        3071 min
Histogram: 2 2 0 0 1 4 3 2 1 1
Nghost:        731.625 ave         946 max         320 min
Histogram: 2 0 0 0 0 2 6 2 0 4
Neighs:        8652.88 ave       25106 max        1729 min
Histogram: 3 3 5 2 0 1 0 1 0 1

Total # of neighbors = 138446
Ave neighs/atom = 1.035118
Neighbor list builds = 5817
Dangerous builds = 0

undump          sync
undump          contacts
undump          traj
uncompute       cids
uncompute       cpair

if "${post_steps} > 0" then "run ${post_steps}"
Total wall time: 0:46:50
